LAMMPS (27 May 2021)
OMP_NUM_THREADS environment is not set. Defaulting to 1 thread. (src/comm.cpp:98)
  using 1 OpenMP thread(s) per MPI task
include "P3TT_poly2_tink_LAMMPS.init"
units 	 real 	 # angstroms,kCal/mol,Daltons,Kelvin
atom_style 	 full 	 # select column format for Atoms section
pair_style 	 lj/cut/coul/cut 15.0 15.0 	 # cutoffLJ cutoff_coulomb
bond_style 	 harmonic 	 #parameters needed: k_bond, r0
angle_style 	 harmonic 	 #parameters needed: k_theta, theta0
dihedral_style 	 hybrid opls quadratic
boundary 	 p p p
improper_style 	 cvff
#kspace_style 	 pppm 1.0e-5 	 # long-range electrostatics sum method
pair_modify mix geometric 	 #using OPLS mixing rules
special_bonds lj/coul 0.0 0.0 0.5 	 #scale factor for converting between tinker and lammps parameters

read_data "P3TT_poly2_tink_LAMMPS.data"
Reading data file ...
  orthogonal box = (0.0000000 0.0000000 0.0000000) to (10.525010 10.525010 10.525010)
  1 by 1 by 1 MPI processor grid
  reading atoms ...
  34 atoms
  scanning bonds ...
  3 = max bonds/atom
  scanning angles ...
  6 = max angles/atom
  scanning dihedrals ...
  10 = max dihedrals/atom
  reading bonds ...
  35 bonds
  reading angles ...
  62 angles
  reading dihedrals ...
  84 dihedrals
Finding 1-2 1-3 1-4 neighbors ...
  special bond factors lj:    0        0        0.5     
  special bond factors coul:  0        0        0.5     
     4 = max # of 1-2 neighbors
     7 = max # of 1-3 neighbors
    15 = max # of 1-4 neighbors
    16 = max # of special neighbors
  special bonds CPU = 0.002 seconds
  read_data CPU = 0.011 seconds

include "P3TT_poly2_tink_LAMMPS.settings"
#Non-bonded interactions
#pair_coeff atomType1 atomType2 eps(kcal/mol) sigma(ang)
pair_coeff 1 	 1 	 0.25 	 3.55
pair_coeff 2 	 2 	 0.07 	 3.55
pair_coeff 3 	 3 	 0.07 	 3.55
pair_coeff 4 	 4 	 0.07 	 3.55
pair_coeff 5 	 5 	 0.07 	 3.55
pair_coeff 6 	 6 	 0.03 	 2.42
pair_coeff 7 	 7 	 0.07 	 3.55
pair_coeff 8 	 8 	 0.03 	 2.5
pair_coeff 9 	 9 	 0.066 	 3.5
pair_coeff 10 	 10 	 0.066 	 3.5
pair_coeff 11 	 11 	 0.03 	 2.42

#Stretching Interactions
#bond_coeff bondtype k (kcal/mol ang^-2) R0 (ang)
bond_coeff 1 	 250.0 	 1.758
bond_coeff 2 	 250.0 	 1.75
bond_coeff 3 	 546.0 	 1.386
bond_coeff 4 	 367.0 	 1.08
bond_coeff 5 	 546.0 	 1.428
bond_coeff 6 	 317.0 	 1.508
bond_coeff 7 	 546.0 	 1.378
bond_coeff 8 	 546.0 	 1.454
bond_coeff 9 	 340.0 	 1.09
bond_coeff 10 	 268.0 	 1.529

#3-body bend interactions
#angle_coeff angletype k (kcal/mol rad^-2) theta_0 (deg)
angle_coeff 1 	 74.0 	 92.1
angle_coeff 2 	 70.0 	 111.0
angle_coeff 3 	 35.0 	 121.6
angle_coeff 4 	 35.0 	 120.0
angle_coeff 5 	 70.0 	 112.0
angle_coeff 6 	 70.0 	 125.6
angle_coeff 7 	 70.0 	 122.4
angle_coeff 8 	 70.0 	 114.8
angle_coeff 9 	 35.0 	 132.1
angle_coeff 10 	 35.0 	 125.7
angle_coeff 11 	 70.0 	 110.0
angle_coeff 12 	 70.0 	 123.1
angle_coeff 13 	 70.0 	 127.5
angle_coeff 14 	 35.0 	 109.5
angle_coeff 15 	 70.0 	 115.3
angle_coeff 16 	 33.0 	 107.8
angle_coeff 17 	 37.5 	 110.7
angle_coeff 18 	 58.35 	 112.7
angle_coeff 19 	 70.0 	 118.4
angle_coeff 20 	 70.0 	 131.1

#Dihedral parameters
#dihedral_coeff dihedral_type V1 V2 V3 V4
dihedral_coeff 1 opls 	 0.0 	 3.05 	 0.0 	 0.0
dihedral_coeff 2 opls	 0.0 	 2.8 	 0.0 	 0.0
dihedral_coeff 3 opls	 0.0 	 7.25 	 0.0 	 0.0
dihedral_coeff 4 opls	 0.0 	 0.0 	 0.0 	 0.0
dihedral_coeff 5 opls	 1.674 	 3.438 	 -0.126 	 -0.035
dihedral_coeff 6 opls	 0.0 	 0.0 	 0.462 	 0.0
dihedral_coeff 7 opls	 0.0 	 0.0 	 0.4 	 0.0
dihedral_coeff 8 opls	 0.0 	 0.0 	 0.3 	 0.0
#dihedral_coeff 9 quadratic 300 60
dihedral_coeff 9 opls 0.0 0.0 0.0 0.0

#Improper interactions
#Improper_coeff improper_type PARAMS

timestep 1
thermo 4000
thermo_style custom step temp press vol etotal ke pe ebond eangle edihed eimp evdwl ecoul elong density
neigh_modify delay 0 every 1 check yes page 100000 one 10000

minimize 1.0e-6 1.0e-6 1000 1000
Neighbor list info ...
  update every 1 steps, delay 0 steps, check yes
  max neighbors/atom: 10000, page size: 100000
  master list distance cutoff = 17
  ghost atom cutoff = 17
  binsize = 8.5, bins = 2 2 2
  1 neighbor lists, perpetual/occasional/extra = 1 0 0
  (1) pair lj/cut/coul/cut, perpetual
      attributes: half, newton on
      pair build: half/bin/newton
      stencil: half/bin/3d
      bin: standard
WARNING: Bond/angle/dihedral extent > half of periodic box length (src/domain.cpp:934)
Per MPI rank memory allocation (min/avg/max) = 13.11 | 13.11 | 13.11 Mbytes
Step Temp Press Volume TotEng KinEng PotEng E_bond E_angle E_dihed E_impro E_vdwl E_coul E_long Density 
       0            0   -51.881059    1165.9168    15.445273            0    15.445273   0.18870281    2.6731515    2.6669035            0   -5.2363274    15.152842            0   0.35665396 
      13            0   -164.22594    1165.9168    15.359694            0    15.359694   0.19951199    2.6885236    2.6645641            0   -5.2632234    15.070318            0   0.35665396 
WARNING: Bond/angle/dihedral extent > half of periodic box length (src/domain.cpp:934)
Loop time of 0.0200169 on 1 procs for 13 steps with 34 atoms

156.1% CPU use with 1 MPI tasks x 1 OpenMP threads

Minimization stats:
  Stopping criterion = linesearch alpha is zero
  Energy initial, next-to-last, final = 
      15.4452728238006   15.3596942642098   15.3596942642098
  Force two-norm initial, final = 1.2840203 2.5026963
  Force max component initial, final = 0.48269162 1.2203589
  Final line search alpha, max atom move = 1.2210475e-09 1.4901161e-09
  Iterations, force evaluations = 13 95

MPI task timing breakdown:
Section |  min time  |  avg time  |  max time  |%varavg| %total
---------------------------------------------------------------
Pair    | 0.015012   | 0.015012   | 0.015012   |   0.0 | 75.00
Bond    | 0.0050051  | 0.0050051  | 0.0050051  |   0.0 | 25.00
Neigh   | 0          | 0          | 0          |   0.0 |  0.00
Comm    | 0          | 0          | 0          |   0.0 |  0.00
Output  | 0          | 0          | 0          |   0.0 |  0.00
Modify  | 0          | 0          | 0          |   0.0 |  0.00
Other   |            | 0          |            |       |  0.00

Nlocal:        34.0000 ave          34 max          34 min
Histogram: 1 0 0 0 0 0 0 0 0 0
Nghost:        2887.00 ave        2887 max        2887 min
Histogram: 1 0 0 0 0 0 0 0 0 0
Neighs:        10393.0 ave       10393 max       10393 min
Histogram: 1 0 0 0 0 0 0 0 0 0

Total # of neighbors = 10393
Ave neighs/atom = 305.67647
Ave special neighs/atom = 10.058824
Neighbor list builds = 0
Dangerous builds = 0

fix 1 all nve
fix 4 all langevin 600.0 300.0 100.0 36734
run 5000000
WARNING: Bond/angle/dihedral extent > half of periodic box length (src/domain.cpp:934)
Per MPI rank memory allocation (min/avg/max) = 11.99 | 11.99 | 11.99 Mbytes
Step Temp Press Volume TotEng KinEng PotEng E_bond E_angle E_dihed E_impro E_vdwl E_coul E_long Density 
      13            0   -164.22594    1165.9168    15.359694            0    15.359694   0.19951199    2.6885236    2.6645641            0   -5.2632234    15.070318            0   0.35665396 
    4000    811.70525    623.47803    1165.9168    170.95234    79.844792    91.107551    30.097444    29.476516     13.74289            0   -3.5911625    21.381864            0   0.35665396 
    8000    622.03589   -8282.8063    1165.9168    150.95521    61.187638    89.767573    31.123776    27.998334    14.471727            0   -3.9453859    20.119122            0   0.35665396 
   12000    610.80384    248.87161    1165.9168    137.19443    60.082778    77.111651    23.532387    24.236656    11.448713            0   -4.2999877    22.193884            0   0.35665396 
   16000    676.98582    381.48652    1165.9168    154.56109    66.592882    87.968208    26.747557    30.912168    13.013677            0   -3.2117495    20.506557            0   0.35665396 
   20000    600.27139   -321.49559    1165.9168    139.17835    59.046735    80.131613    15.424052    31.685456    12.392405            0   -0.9639601    21.593661            0   0.35665396 
   24000    573.69574     3876.989    1165.9168     138.1318    56.432575    81.699227    18.408094     32.96513    7.3388837            0  -0.50762302    23.494742            0   0.35665396 
   28000    603.57695   -2793.3171    1165.9168    136.84151    59.371892    77.469616    21.578814    23.781023    11.303907            0    -1.684282    22.490154            0   0.35665396 
   32000    410.47738    3748.5838    1165.9168     127.4978    40.377318    87.120477    27.426711    26.677783    9.9271669            0   -2.5269534     25.61577            0   0.35665396 
   36000    628.29952   -576.83198    1165.9168     138.8029     61.80377    76.999131    22.369689     25.25055    12.174592            0   -4.6282493     21.83255            0   0.35665396 
   40000    513.65723   -5350.3427    1165.9168    126.02189    50.526783    75.495109    21.723724     24.47028     9.745104            0   -4.8939532    24.449954            0   0.35665396 
   44000      529.296    1167.4331    1165.9168    129.82409    52.065117    77.758976    16.298933    21.811624    13.443381            0   -1.6167191    27.821757            0   0.35665396 
   48000    582.72952   -5399.2347    1165.9168    132.84222    57.321198    75.521019    19.065973    22.802479    14.003101            0   -4.8836654    24.533132            0   0.35665396 
   52000      497.127     243.9023    1165.9168     139.9796    48.900758    91.078844    24.398638    32.199575    14.101638            0   -3.1469929    23.525987            0   0.35665396 
   56000    511.91075    5861.4068    1165.9168    132.46226    50.354988    82.107276    19.233221    32.463581    9.8821454            0   -3.0814952    23.609824            0   0.35665396 
   60000    773.73439    3509.4315    1165.9168    166.83528    76.109723    90.725554    27.117687    29.317393    14.966237            0   -1.3054651    20.629702            0   0.35665396 
   64000    707.51318   -2021.2268    1165.9168    148.83001    69.595759    79.234255    24.785071    28.588182    14.330918            0   -5.2477017    16.777785            0   0.35665396 
   68000    676.10769    6513.7002    1165.9168    145.82201    66.506504    79.315502    16.522668    25.324036    13.307993            0   -2.5438215    26.704626            0   0.35665396 
   72000    741.11241   -2035.1823    1165.9168    159.86748    72.900806    86.966673    29.687284    29.698695    6.5852163            0   -1.5612457    22.556723            0   0.35665396 
   76000    668.43132   -7197.4969    1165.9168    151.14065    65.751405    85.389245    23.716774     27.30504    12.684584            0    -2.211191    23.894037            0   0.35665396 
   80000    551.44935   -2741.2289    1165.9168    123.55365     54.24427    69.309384    24.929314    21.228773    10.247344            0   -2.6541724    15.558126            0   0.35665396 
   84000    551.94303    3326.4139    1165.9168    133.43626    54.292832    79.143431    20.684317    21.978505    15.725184            0   -1.7203585    22.475783            0   0.35665396 
   88000    558.25739    751.75004    1165.9168    126.41143    54.913955     71.49747    23.917319    21.120171    7.0003427            0    -1.358039    20.817677            0   0.35665396 
   92000    691.42738    6479.3367    1165.9168    136.19079    68.013451    68.177341    14.679259    22.248025    16.461155            0   -2.9516877    17.740589            0   0.35665396 
   96000    544.07496     4565.013    1165.9168    137.75727    53.518875    84.238398    21.119426     27.57887    7.9132115            0   -3.1939794    30.820871            0   0.35665396 
  100000    553.98019   -2641.9537    1165.9168    149.48889    54.493221    94.995667    29.442111    36.359013    20.022026            0   -3.8739076    13.046425            0   0.35665396 
  104000    544.45228    1193.7848    1165.9168    139.62486    53.555991    86.068867    27.041524    25.975294     11.88685            0   -2.2778156    23.443015            0   0.35665396 
  108000    632.46091   -7002.3811    1165.9168    140.33312    62.213113    78.120003    23.654273    25.928522    11.717641            0  -0.11597494    16.935542            0   0.35665396 
  112000    787.23318    1191.6218    1165.9168    162.22344    77.437555    84.785885    23.945611    29.388711    15.873561            0   -3.9465953    19.524597            0   0.35665396 
  116000    683.07369   -5571.5371    1165.9168    165.26423    67.191726      98.0725    29.222025    24.747934    21.522976            0   -4.7803402    27.359905            0   0.35665396 
  120000    622.51376    5121.9506    1165.9168    138.99836    61.234644    77.763718    26.498749    22.700093      9.44254            0  -0.88147538     20.00381            0   0.35665396 
  124000    716.15787   -9830.0609    1165.9168    141.40189    70.446109     70.95578    24.949648     25.99144    6.8606011            0   -4.1648739    17.318964            0   0.35665396 
  128000    621.74767    10964.901    1165.9168    142.26444    61.159286    81.105153    20.234534    29.745619    11.105115            0   -2.1183366    22.138222            0   0.35665396 
  132000    467.85424   -3599.1795    1165.9168    147.45464    46.021293    101.43335    37.702337    32.705671    13.401594            0    1.0586892    16.565058            0   0.35665396 
  136000    694.08035   -3181.0612    1165.9168    146.23078    68.274416    77.956364     24.27475     31.41051    7.3325414            0   -3.8353842    18.773948            0   0.35665396 
  140000    625.73507   -282.42818    1165.9168    140.13991    61.551514    78.588395    20.695965    24.817132    9.1689018            0   -1.4830451    25.389442            0   0.35665396 
  144000    663.18555    5035.6536    1165.9168    160.07123    65.235395    94.835839     30.08741    30.789222    8.6761668            0  0.068495463    25.214544            0   0.35665396 
  148000    691.67848    2139.0008    1165.9168    143.88574    68.038152    75.847587    26.740991    19.553222    16.453452            0   -3.2664418    16.366364            0   0.35665396 
  152000    591.11865   -1510.3604    1165.9168    151.43275     58.14641    93.286337    25.425324    29.445282    18.537901            0   -4.4458209    24.323652            0   0.35665396 
  156000    696.73626   -6694.4326    1165.9168    142.80784    68.535668    74.272169    26.944328     17.56947    10.677013            0   -2.7794759    21.860834            0   0.35665396 
  160000     550.6627   -4248.3695    1165.9168    135.39527     54.16689    81.228384    27.990042    26.005885    12.775189            0   -4.8388839    19.296152            0   0.35665396 
  164000    661.02385    4837.6172    1165.9168    153.47679    65.022756    88.454039    12.834997    36.506945    24.395765            0   -3.7136528    18.429984            0   0.35665396 
  168000    454.69056    -10575.65    1165.9168     125.5375    44.726424     80.81108    33.311975    23.040059     11.97109            0   -5.2529487    17.740904            0   0.35665396 
  172000    648.71279    4165.8511    1165.9168    136.61144    63.811757    72.799679    16.062124    22.517629    16.038744            0   -1.7150604    19.896243            0   0.35665396 
  176000    577.11498   -2133.5483    1165.9168    141.26942    56.768915    84.500504    33.396559    22.140354     9.657964            0   -4.2274783    23.533105            0   0.35665396 
  180000      696.304   -4552.5807    1165.9168    135.74295    68.493149    67.249806    12.183081    27.129673    13.344378            0   -6.2448382    20.837511            0   0.35665396 
  184000    597.12805    2370.5327    1165.9168    127.55086    58.737534    68.813325    16.374901     22.99857    11.745966            0   -3.0722619     20.76615            0   0.35665396 
  188000    732.31273   -7203.2615    1165.9168    147.54796     72.03521    75.512753    21.708673    23.349542    12.143765            0   -3.6014621    21.912236            0   0.35665396 
  192000    536.37058   -1305.9053    1165.9168     131.2054    52.761021    78.444376    20.385967    31.281356    10.826879            0   -3.7887951    19.738969            0   0.35665396 
  196000    682.97962    1930.1862    1165.9168    143.17345    67.182473    75.990974    23.774706    24.354978    11.949026            0   -4.6107559    20.523019            0   0.35665396 
  200000    553.39005    4501.6566    1165.9168    134.82811    54.435171    80.392942    17.096918    34.146656     12.45475            0   -2.9922649    19.686883            0   0.35665396 
  204000    747.07278    7793.1857    1165.9168    143.80029    73.487108    70.313182    15.643889    24.121724    11.161258            0   -3.6830248    23.069336            0   0.35665396 
  208000    669.63961    2177.6294    1165.9168    141.56672     65.87026     75.69646     11.84823    31.865413    15.690442            0   -2.4954246    18.787799            0   0.35665396 
  212000    632.23619   -3945.4609    1165.9168    149.89007    62.191008    87.699059    29.220518    29.048296    11.514642            0    -5.023492    22.939094            0   0.35665396 
  216000    576.77875    -4895.387    1165.9168    136.18828    56.735841    79.452438    19.283236    21.317947    19.570548            0   -4.5313973    23.812104            0   0.35665396 
  220000    708.92728   -3823.5371    1165.9168    150.18095     69.73486    80.446094    22.774788    33.978542    5.4744033            0   -2.7373294     20.95569            0   0.35665396 
  224000     528.4765    1857.5798    1165.9168    115.73459    51.984506    63.750089    13.130924    22.671076    11.312932            0   -4.1164366    20.751594            0   0.35665396 
  228000    546.52694    3091.0134    1165.9168    137.95648    53.760069    84.196413    23.336957    35.121809    6.4456083            0   -4.5091142    23.801153            0   0.35665396 
  232000    703.12847    1148.8705    1165.9168    136.91985     69.16445    67.755402    14.631314    26.876355    11.615718            0   -3.8502135    18.482229            0   0.35665396 
  236000    577.41044    3327.6964    1165.9168    126.19302    56.797978    69.395045    19.201707    15.057648    17.051769            0   -5.0165918    23.100513            0   0.35665396 
  240000     451.4142   -14.758052    1165.9168    104.66367    44.404139    60.259533    11.221111    18.817353    13.354611            0   -2.0997702    18.966228            0   0.35665396 
  244000    520.32533   -6760.2185    1165.9168    132.88172    51.182702    81.699018    22.742712    27.933502    7.1570238            0  -0.44062852    24.306409            0   0.35665396 
  248000    594.72141    4874.7493    1165.9168    133.12807    58.500801    74.627266    15.017437    26.648072    15.108546            0  -0.67861493    18.531826            0   0.35665396 
  252000    681.44702    4625.0975    1165.9168    132.32778    67.031716    65.296063    16.540546    22.569574      12.0218            0   -2.8086102    16.972753            0   0.35665396 
  256000    483.04852    4156.2042    1165.9168    127.36653    47.515904    79.850631    16.856161    26.814109    9.8368264            0   0.29778663    26.045748            0   0.35665396 
  260000    447.12128    -8705.613    1165.9168    126.49599    43.981859    82.514129    25.776527    24.857009     14.11034            0   -4.4289437    22.199197            0   0.35665396 
  264000    597.78142   -2829.6031    1165.9168    140.64853    58.801804    81.846728    18.129374    25.184803    15.874842            0   -4.6932892    27.350999            0   0.35665396 
  268000    694.17328   -4663.2362    1165.9168    131.50781    68.283556    63.224252    16.215054    21.580669    5.5717592            0    -1.196413    21.053182            0   0.35665396 
  272000    494.05495    4112.6562    1165.9168    128.53707    48.598571    79.938497    20.417232    30.517273    12.406087            0   -3.3803059    19.978211            0   0.35665396 
  276000     603.3192    1830.9612    1165.9168    133.75146    59.346537    74.404927    18.124704    21.596479    20.512838            0   -2.8289033    16.999808            0   0.35665396 
  280000    570.84216   -181.03815    1165.9168    135.39444    56.151877    79.242563    19.855465    27.594149    12.638632            0   -3.3530921    22.507408            0   0.35665396 
  284000    559.97268   -1993.7335    1165.9168    157.49843    55.082682    102.41575    24.633147    36.613193    15.257813            0   -2.9128405    28.824433            0   0.35665396 
  288000    476.66564   -2869.5165    1165.9168    118.14647    46.888041    71.258429    17.842483     22.18524    13.228756            0   -4.1860139    22.187964            0   0.35665396 
  292000    809.96577    5179.6878    1165.9168    150.45902    79.673685    70.785335    18.441386    29.489715    10.031141            0  -0.64355306    13.466646            0   0.35665396 
  296000    921.11981    7963.2045    1165.9168    181.02405    90.607546    90.416508    17.719813    31.475048    16.423389            0 -0.00061022832    24.798868            0   0.35665396 
  300000    630.57405   -8258.8624    1165.9168    146.13353    62.027508     84.10602    28.019354     22.10684    18.174078            0   -4.9725911    20.778339            0   0.35665396 
  304000    639.62551    2540.5175    1165.9168    128.03817    62.917871    65.120294    17.280614     20.89161    7.9712903            0   -4.1836255    23.160405            0   0.35665396 
  308000    538.04413   -969.76656    1165.9168    130.73505    52.925643    77.809408    21.639259     25.71835    9.1130761            0    -3.921106    25.259828            0   0.35665396 
  312000    618.65431   -2527.8882    1165.9168    133.31096    60.855002    72.455956     20.07801    26.422704    13.474916            0   -4.2114288    16.691754            0   0.35665396 
  316000    652.39225    -2025.172    1165.9168    150.11351    64.173694    85.939821    24.996191    32.560965    9.1811446            0   -4.8231214    24.024641            0   0.35665396 
  320000    628.88619    6807.7879    1165.9168    145.06096    61.861479    83.199482    19.763998    29.145117    9.4888289            0   -2.6147931    27.416332            0   0.35665396 
  324000    740.60311    5503.1303    1165.9168    147.95018    72.850707    75.099472    17.694942    27.818448    12.582947            0   -3.0290529    20.032188            0   0.35665396 
  328000    562.94099   -10429.422    1165.9168    120.51278    55.374665    65.138114    20.291428    18.579692    11.416192            0   -3.2503729    18.101175            0   0.35665396 
  332000    538.24024   -1008.3408    1165.9168    129.47632    52.944933    76.531386    15.017267    28.345372     14.67903            0    -5.667071    24.156789            0   0.35665396 
  336000    562.75636    1615.7529    1165.9168    127.72317    55.356504    72.366665    18.320726    25.234785    10.808358            0   -3.5961353    21.598931            0   0.35665396 
  340000    580.62243    6267.3859    1165.9168    122.70123     57.11393    65.587301    18.084198    22.037576    9.7400647            0   -1.4427327    17.168195            0   0.35665396 
  344000     544.7479   -4529.3308    1165.9168    117.58457    53.585071    63.999501    19.723192     25.23399    7.0458516            0   -3.8711813    15.867648            0   0.35665396 
  348000    431.76368   -6324.3682    1165.9168    120.02816    42.471182    77.556973    27.348441    22.702916    5.1770767            0   0.02847137    22.300069            0   0.35665396 
  352000    509.71078   -1270.1913    1165.9168    134.40744    50.138584    84.268857    25.311275    33.383738    10.740223            0   -4.8131096    19.646732            0   0.35665396 
  356000    532.65827    3005.7101    1165.9168    123.93327    52.395853    71.537418    19.253731    19.805472     12.77808            0   -2.9245266    22.624661            0   0.35665396 
  360000    563.50713    2555.0683    1165.9168     131.6804    55.430355    76.250047    19.578225    21.162344    14.046791            0   -2.4149289    23.877615            0   0.35665396 
  364000    609.09483    7625.7201    1165.9168    149.38896    59.914667    89.474297    20.283718    35.610209    7.8750616            0    1.9237093    23.781599            0   0.35665396 
  368000     607.1367   -386.83467    1165.9168    135.29991    59.722053    75.577855     15.92646    23.642809    12.401784            0     2.618083    20.988718            0   0.35665396 
  372000    639.06424    1458.2043    1165.9168    141.08491     62.86266    78.222245    19.126453    23.950078    16.954535            0   -4.7434945    22.934675            0   0.35665396 
  376000    545.44633   -6560.7446    1165.9168    133.35489    53.653773     79.70112    23.352495    25.903371    12.606873            0   -4.7111201    22.549501            0   0.35665396 
  380000    637.61997   -1723.8307    1165.9168    148.06927    62.720592    85.348674    29.005681    31.569605    10.590333            0   -3.2222568    17.405312            0   0.35665396 
  384000    647.91966    14725.927    1165.9168    147.28243     63.73374    83.548695    21.547951    26.743939    12.595466            0    -2.950451    25.611789            0   0.35665396 
  388000     552.6077     -5710.99    1165.9168    140.32752    54.358213    85.969305     23.78738     32.80779    13.966305            0   -2.2372379    17.645069            0   0.35665396 
  392000    669.24939    1574.5133    1165.9168    157.38004    65.831875    91.548162    25.140711    39.281559    9.9377882            0   -1.7438017    18.931906            0   0.35665396 
  396000    556.58775   -99.726393    1165.9168    133.52658    54.749718    78.776861     14.87113    33.528275    6.2199256            0  -0.99184361    25.149374            0   0.35665396 
  400000    611.96061    4089.2588    1165.9168    148.73776    60.196565     88.54119    17.987725     28.31704    19.445545            0   -2.0943273    24.885206            0   0.35665396 
  404000    619.74553    10398.537    1165.9168    142.65372    60.962342    81.691374    26.309889    21.876495    15.583554            0   -4.4212455    22.342682            0   0.35665396 
  408000    605.59259   -5975.2051    1165.9168    146.09485    59.570164    86.524687    30.002691    31.564452    11.207461            0   -3.7352032    17.485287            0   0.35665396 
  412000    657.13886    2917.7211    1165.9168    136.76572    64.640601    72.125117    19.526455    24.136719    11.784155            0    -2.764087    19.441875            0   0.35665396 
  416000    643.09612   -634.20949    1165.9168    122.61522    63.259264    59.355953    19.640987    19.833416    9.9977596            0   -4.5559932    14.439784            0   0.35665396 
  420000    589.41064   -1291.7389    1165.9168    131.81045    57.978398    73.832047    14.475496    26.088457    11.486599            0   -1.6637794    23.445275            0   0.35665396 
  424000    648.72486    6813.2488    1165.9168    139.83283    63.812945    76.019888    20.944564    19.985363    16.333202            0   -2.2485954    21.005354            0   0.35665396 
  428000    667.76583   -1917.0413    1165.9168    143.94229    65.685943    78.256347    18.483662     30.44155    9.6302624            0    -1.192575    20.893448            0   0.35665396 
  432000    525.81382   -1510.6854    1165.9168    121.21929    51.722587      69.4967    19.848098    24.404128    10.424563            0   -4.2786189     19.09853            0   0.35665396 
  436000    469.83105   -2194.9496    1165.9168     112.9726    46.215745    66.756852    23.209594    19.780392    8.0522981            0   -5.3145871    21.029155            0   0.35665396 
  440000    501.25131    3219.5295    1165.9168    135.46718    49.306453     86.16073    24.363701    25.810723    14.599148            0   -3.5084527    24.895612            0   0.35665396 
  444000    640.59407    1.7843304    1165.9168    139.45153    63.013145    76.438386    19.215046    28.350884    9.7442244            0    -2.557806    21.686038            0   0.35665396 
  448000    533.67918   -5552.8937    1165.9168    124.18786    52.496277    71.691581    28.706149    17.596989    10.167345            0   -4.4731779    19.694276            0   0.35665396 
  452000    732.35559    8130.9613    1165.9168    159.35009    72.039426    87.310666    25.203554    23.723833    9.5666012            0    2.4633349    26.353343            0   0.35665396 
  456000    599.32881    3648.2501    1165.9168    139.07786    58.954016    80.123845    25.126225    25.036284     9.177238            0    -3.536552     24.32065            0   0.35665396 
  460000    410.77955    1663.5016    1165.9168    112.13197    40.407041    71.724929    15.169274    28.824232    9.1801752            0   -0.5349481    19.086196            0   0.35665396 
  464000    816.09406   -2313.0818    1165.9168    159.41449    80.276505    79.137989     23.78787    31.344459    8.8132791            0   -3.8443165    19.036698            0   0.35665396 
  468000    658.62737   -3833.9772    1165.9168    150.42936    64.787022    85.642343    22.593252      34.9568    10.645209            0   -3.4392269    20.886309            0   0.35665396 
  472000    592.46324   -6915.8931    1165.9168    143.24558    58.278673    84.966907     28.17473    33.737286    11.941771            0   -3.2206391    14.333759            0   0.35665396 
  476000    572.59044   -2637.0134    1165.9168    147.93274     56.32385    91.608891    22.656916    37.542237    9.4196383            0   -1.5725897    23.562688            0   0.35665396 
  480000    594.55327    1517.8549    1165.9168    121.99475    58.484262    63.510491     17.66965    18.222574    9.5074877            0   -2.6497477    20.760527            0   0.35665396 
  484000    450.27621    -135.8548    1165.9168    130.94836    44.292199    86.656159    20.230742     32.85877    14.753908            0   -2.9889471    21.801685            0   0.35665396 
  488000    541.23303    2292.8549    1165.9168    141.41094    53.239324    88.171616    23.400873    26.055973    20.917121            0   -4.6357501    22.433399            0   0.35665396 
  492000    531.59013    9255.1066    1165.9168    130.16163    52.290783    77.870849    20.306224    19.436567    14.533116            0   -1.5363426    25.131284            0   0.35665396 
  496000    515.61995    5403.0698    1165.9168    108.99379    50.719849    58.273945    11.646598    20.757534     10.77217            0   -2.0486067    17.146249            0   0.35665396 
  500000    812.77326   -456.87506    1165.9168    147.44049     79.94985    67.490637    21.185435    23.095958    11.907591            0   -3.9317703    15.233423            0   0.35665396 
  504000    674.77911   -2291.6217    1165.9168    130.35465    66.375815     63.97883    14.184821    19.765444    12.620598            0   -3.3647796    20.772746            0   0.35665396 
  508000    602.98894   -4758.5635    1165.9168    132.03492    59.314051    72.720872     23.10739    19.241963    8.0193041            0   -1.0843181    23.436533            0   0.35665396 
  512000    692.94857   -6481.3723    1165.9168    153.10953    68.163086    84.946448    35.388608    23.449168    7.9579263            0   -4.3367564    22.487501            0   0.35665396 
  516000    536.68706   -1538.9126    1165.9168    135.65135    52.792153    82.859198    17.012817    28.094084    14.669789            0    -4.403047    27.485555            0   0.35665396 
  520000    551.49466   -19.134273    1165.9168    121.76917    54.248727    67.520447    17.830985    21.680353    10.991468            0   -3.3157161    20.333357            0   0.35665396 
  524000     610.6687   -5999.0861    1165.9168    141.51259    60.069484    81.443104    19.068236    30.550998    10.531243            0   -1.8316916    23.124318            0   0.35665396 
  528000    773.07101   -1452.1912    1165.9168       174.64    76.044469    98.595534    25.195776     35.33463    13.828482            0   -4.0278965    28.264542            0   0.35665396 
  532000    448.70077     2809.163    1165.9168    111.52109    44.137228    67.383861    15.397436    26.098889    8.1807031            0   -3.7058232    21.412657            0   0.35665396 
  536000     637.8178    8090.3033    1165.9168    136.13429    62.740052    73.394241    24.781943    21.128162    6.5957173            0   -3.5000653    24.388485            0   0.35665396 
  540000    638.78961    5027.0188    1165.9168    120.91521    62.835646    58.079562    14.580434    25.079012    9.2654958            0   -3.4991078    12.653728            0   0.35665396 
  544000    582.72772    1439.8865    1165.9168     139.7076    57.321021    82.386581    28.066052    26.433981    9.7661619            0   -4.2147745    22.335161            0   0.35665396 
  548000    461.80258   -4988.9438    1165.9168    114.16897    45.426011    68.742963     15.98182    22.281062    11.332603            0   -4.7705684    23.918047            0   0.35665396 
  552000    610.32633   -496.50996    1165.9168    138.61868    60.035806    78.582871    30.053737     20.34055    9.2361352            0   -1.0328391    19.985288            0   0.35665396 
  556000    508.40247   -2029.3131    1165.9168    117.32159    50.009889    67.311705    11.927297    23.499604     9.778559            0   -2.6215162    24.727762            0   0.35665396 
  560000    549.88198    146.12355    1165.9168    118.87334    54.090093    64.783248    11.941412    27.630263     10.73511            0   -3.9879939    18.464457            0   0.35665396 
  564000    487.54146    -289.5191    1165.9168    118.23168     47.95786    70.273824    26.121058    18.417223    12.165844            0   -3.7231612     17.29286            0   0.35665396 
  568000    637.09181    6225.0298    1165.9168    135.13522    62.668639    72.466585    17.058065    22.265157    10.447534            0   0.94245036    21.753379            0   0.35665396 
  572000    762.37158   -4489.6971    1165.9168     169.7089    74.992001    94.716903    29.606668    34.012402    17.096946            0   -5.5447307    19.545617            0   0.35665396 
  576000    640.70606   -2227.9224    1165.9168    132.86205    63.024161    69.837884    20.710542    21.877716    4.5737477            0   -1.7762513     24.45213            0   0.35665396 
  580000    529.93451   -3874.1249    1165.9168    127.19726    52.127926    75.069337    20.404204    29.595816    6.3592091            0   -1.3364333    20.046541            0   0.35665396 
  584000    633.12429    3394.6852    1165.9168    136.45858    62.278367    74.180218    21.283721    27.222571    9.1454983            0   -5.0565451    21.584972            0   0.35665396 
  588000    550.08052     1661.766    1165.9168     131.0539    54.109623    76.944275    24.364163    24.111398    15.455312            0   -5.1899548    18.203357            0   0.35665396 
  592000    624.44927    4401.9423    1165.9168    144.69426    61.425034    83.269228    18.729948    30.175935     18.21108            0   -3.4847144     19.63698            0   0.35665396 
  596000    609.43082   -757.04535    1165.9168    135.16205    59.947718    75.214329    21.249322    26.072228    13.768032            0    -4.707674    18.832421            0   0.35665396 
  600000    626.98716    -5239.089    1165.9168    149.31414    61.674677    87.639464    26.431181    24.056701    19.880719            0   -3.2693927    20.540256            0   0.35665396 
  604000    612.92252    4606.3636    1165.9168    154.61601    60.291185    94.324822    26.944615    33.803851    13.999132            0   -1.7360068    21.313232            0   0.35665396 
  608000    741.40703   -904.98578    1165.9168    143.83163    72.929787    70.901846    14.436592    28.760476    9.0297085            0   -2.2761283    20.951197            0   0.35665396 
  612000    816.69305    1728.7811    1165.9168    156.89924    80.335426    76.563819    19.914521    25.463417    11.554279            0   -5.4527159    25.084317            0   0.35665396 
  616000    567.72364   -1472.5102    1165.9168    121.13205    55.845119    65.286933    17.401551    18.330728    8.5940318            0   -2.5111223    23.471746            0   0.35665396 
  620000    634.06977   -1526.4377    1165.9168    122.53451    62.371371    60.163143    16.171478    19.122876    9.8431664            0   -4.7385338    19.764157            0   0.35665396 
  624000     556.1695   -4059.7918    1165.9168    138.63807    54.708576    83.929498    25.938595    25.620189    9.2006052            0    2.5114189     20.65869            0   0.35665396 
  628000     898.4616    4162.1352    1165.9168    150.34696    88.378731    61.968225    11.042801    21.592786    12.473916            0    -3.405247    20.263968            0   0.35665396 
  632000    498.94305    2779.3821    1165.9168    127.70459    49.079397    78.625194    11.161502    25.568509    16.754245            0    -3.163667    28.304605            0   0.35665396 
  636000    636.20364    -9095.278    1165.9168    141.65376    62.581272    79.072484    21.860342    26.200568    14.293522            0   -4.0920132    20.810066            0   0.35665396 
  640000    528.08464    398.89996    1165.9168    118.63255     51.94596    66.686591    14.449166    18.922154    12.048925            0   -3.7346662    25.001012            0   0.35665396 
  644000    488.46882    3634.9177    1165.9168    114.01417    48.049081    65.965092    18.512406    21.325934    11.125641            0   0.91765276    14.083458            0   0.35665396 
  648000    456.23104    354.23705    1165.9168    117.65736    44.877956    72.779407    18.050041     23.75131    10.821044            0   -2.3910515    22.548064            0   0.35665396 
  652000    473.24173   -1881.1287    1165.9168    115.23555    46.551243     68.68431    16.519119    21.349486    12.546109            0   -2.9006355    21.170232            0   0.35665396 
  656000     591.2146   -451.89627    1165.9168    145.42796    58.155848    87.272115    25.445067    25.598503    15.314137            0   -2.6705734    23.584981            0   0.35665396 
  660000    550.27657    2617.2983    1165.9168    135.92929    54.128907    81.800379    17.533095    32.052087    15.101705            0   -3.8704822    20.983974            0   0.35665396 
  664000    621.34496   -817.62909    1165.9168    141.57072    61.119673    80.451047    22.378055    32.227726    6.1351378            0   -3.9173721    23.627501            0   0.35665396 
  668000    627.68385    6647.0148    1165.9168    147.91704    61.743209    86.173831    24.029198    27.590337    14.223388            0   -1.5462947    21.877203            0   0.35665396 
  672000     423.4681     8176.073    1165.9168    115.39859    41.655173     73.74342    24.552147    25.075607    11.346213            0   -2.1911889    14.960642            0   0.35665396 
  676000    501.49458    4346.4951    1165.9168    129.28364    49.330383    79.953253    24.879433    26.301874    10.802358            0   -4.0775831    22.047171            0   0.35665396 
  680000    491.96253    1083.5014    1165.9168    141.62285    48.392747    93.230102    25.774015     34.66211    13.536966            0   -1.4303898    20.687401            0   0.35665396 
  684000    693.93023   -266.77533    1165.9168    138.23964    68.259648    69.979989    19.967619    30.671917    8.9100664            0   -5.5047665    15.935153            0   0.35665396 
  688000    545.62132     2061.853    1165.9168    130.11633    53.670986    76.445341    23.659824    16.049443    9.8382288            0   -1.0590182    27.956864            0   0.35665396 
  692000    688.37485    929.32689    1165.9168    141.39582    67.713184    73.682636    22.407067    18.099717    10.638724            0   -4.4081268    26.945254            0   0.35665396 
  696000    717.78981    2792.4476    1165.9168    147.73571    70.606638    77.129068    23.306092    20.738468    12.050156            0   -3.8209256    24.855278            0   0.35665396 
  700000    554.08857   -4019.3372    1165.9168    125.03698    54.503881    70.533094    16.484182    27.418733    11.868444            0   -4.9519845    19.713718            0   0.35665396 
  704000     646.8247    5039.0893    1165.9168    142.92663    63.626032    79.300601    24.195515    24.042523    9.9361271            0   -4.0079004    25.134335            0   0.35665396 
  708000    692.12045   -3884.7396    1165.9168    146.27499    68.081627    78.193362    17.946279    22.986204    16.219811            0   -4.2717815    25.312849            0   0.35665396 
  712000    521.92415   -1710.2177    1165.9168    136.28703    51.339973    84.947059    17.839449    29.409774    16.625351            0   -3.0688077    24.141293            0   0.35665396 
  716000    520.09208    1488.9989    1165.9168    112.64343    51.159759    61.483676    16.463861     22.19039    3.9653797            0   -0.9592472    19.823293            0   0.35665396 
  720000    601.16034    -604.4745    1165.9168    133.86896    59.134177    74.734784    27.208539    18.000382    15.546102            0   -4.9129417    18.892703            0   0.35665396 
  724000     527.0122    3905.0819    1165.9168    125.48386    51.840467    73.643397    17.869589    26.512663    13.574762            0   -3.0783692    18.764754            0   0.35665396 
  728000    644.69537    9547.3649    1165.9168    147.56742    63.416576    84.150847    24.331512    25.827142    10.896453            0  -0.53569727    23.631438            0   0.35665396 
  732000    615.84262   -3598.8325    1165.9168    139.37502    60.578426    78.796598    17.093229    25.202659    18.116973            0   -2.2710668    20.654803            0   0.35665396 
  736000    458.17469    5112.3662    1165.9168     135.7626    45.069146    90.693454    18.609376    31.311502    10.772935            0    4.6455409      25.3541            0   0.35665396 
  740000    596.83178   -616.87576    1165.9168    129.70116    58.708391    70.992765    18.646808    22.883811    9.1434564            0   -2.4504549    22.769145            0   0.35665396 
  744000    613.12167    8810.8969    1165.9168    137.52587    60.310775    77.215095    12.711877    35.288821    9.1980997            0   -3.8352033      23.8515            0   0.35665396 
  748000    417.61692    1268.5816    1165.9168    112.69734    41.079611    71.617733    19.407165    25.752914    13.367119            0   -3.8715343    16.962068            0   0.35665396 
  752000    601.35335   -1394.4693    1165.9168    124.37886    59.153163    65.225694    18.367479    25.203633    8.0166543            0   -4.1350117     17.77294            0   0.35665396 
  756000    587.28839    709.00729    1165.9168    132.33337    57.769639    74.563726    17.695223    23.812306    14.556041            0   -3.8672322    22.367388            0   0.35665396 
  760000    430.72512    2345.2643    1165.9168     107.1755    42.369023    64.806477    13.926673    17.080907    11.635742            0   -3.7467029    25.909858            0   0.35665396 
  764000     453.7995   -6653.6726    1165.9168    119.92107    44.638774      75.2823     23.02765    25.815724    13.621564            0   -4.2481271    17.065489            0   0.35665396 
  768000    450.90045   -4430.7921    1165.9168    126.18698    44.353604    81.833376    30.178487    23.075169    13.866318            0   -3.1987532    17.912155            0   0.35665396 
  772000    737.52877    2710.2757    1165.9168     144.6718    72.548295    72.123505    23.068867    28.254103    6.0045217            0   -3.4894073     18.28542            0   0.35665396 
  776000    603.14827   -1978.1214    1165.9168    121.96937    59.329724    62.639647    18.345431    20.873221    15.492021            0   -5.3504338    13.279409            0   0.35665396 
  780000    583.16261    5355.9072    1165.9168    142.34172      57.3638    84.977921    23.685527    32.313729    12.882311            0   -2.3262136    18.422568            0   0.35665396 
  784000    634.88061    516.74954    1165.9168    131.37268    62.451131    68.921546    17.252119    25.706248    10.581414            0   -4.4487189    19.830485            0   0.35665396 
  788000    480.85498   -8158.3109    1165.9168    129.01567    47.300133    81.715538    24.706549    27.113313    11.587641            0   -3.3892347    21.697269            0   0.35665396 
  792000    502.76691   -3794.9027    1165.9168    118.77152    49.455537    69.315981    20.909483    23.611798    10.848331            0   -3.7593651    17.705735            0   0.35665396 
  796000    484.04863   -2937.9371    1165.9168     135.6024    47.614282    87.988115    27.519649    34.827579    8.4482736            0   -4.4487027    21.641317            0   0.35665396 
  800000    495.24336    -4359.751    1165.9168    127.00747    48.715471    78.291999    23.298143    31.371141    9.2433841            0   -4.0695816    18.448913            0   0.35665396 
  804000     657.3177   -6223.1955    1165.9168    143.42086    64.658193     78.76267    21.105241    30.368284    5.7331317            0   -3.2803518    24.836366            0   0.35665396 
  808000    630.52343   -3796.6485    1165.9168    135.01026    62.022529    72.987728    19.230464    26.572308    10.716882            0   -6.8009521    23.269026            0   0.35665396 
  812000    613.72001   -5462.9672    1165.9168    144.39917    60.369632    84.029534    19.878193     29.07721    12.840959            0    -1.531742    23.764915            0   0.35665396 
  816000    726.25009    -1206.106    1165.9168    143.49373    71.438847    72.054883     13.75337    29.200694    6.1890803            0 0.0037795768     22.90796            0   0.35665396 
  820000    449.93806     -2076.25    1165.9168    106.45334    44.258936    62.194406    19.849804    17.137089    9.7238064            0   -3.6219837     19.10569            0   0.35665396 
  824000    596.84583    -3908.762    1165.9168    133.55354    58.709773    74.843767    19.347686    27.826261    12.432301            0   -4.2355712    19.473091            0   0.35665396 
  828000    492.36157   -1902.8159    1165.9168    119.20861    48.431999    70.776611    15.244046    22.619521    13.864358            0    -5.161496    24.210182            0   0.35665396 
  832000    469.03281    2126.2364    1165.9168    139.15379    46.137225    93.016568    19.046029    33.940068    22.237458            0   -3.7793595    21.572373            0   0.35665396 
  836000    668.62397     3776.605    1165.9168    141.85685    65.770354    76.086496    16.434468    26.011783    12.166357            0   -2.1430309    23.616919            0   0.35665396 
  840000       646.52   -2481.9773    1165.9168    151.81739    63.596059    88.221331    20.511508    31.151036    14.087921            0  -0.22733738    22.698204            0   0.35665396 
  844000    535.86914   -2034.2594    1165.9168    127.23642    52.711695    74.524723    15.757965    28.223474    11.443019            0   -4.3707151    23.470981            0   0.35665396 
  848000    652.73491   -2332.0947    1165.9168    151.01723      64.2074    86.809833    19.803816    32.751381    14.458936            0   -1.8079722    21.603671            0   0.35665396 
  852000    569.78852   -6013.7167    1165.9168    137.13465    56.048234    81.086412    20.521947    29.973705    12.289973            0   -5.5584244    23.859213            0   0.35665396 
  856000    521.13238   -8765.7097    1165.9168    128.67669    51.262089    77.414603    26.167246    24.695922    9.2658662            0   -4.0199803    21.305549            0   0.35665396 
  860000    442.30776   -5512.0206    1165.9168    122.55633    43.508369    79.047966    20.427511    31.330152    7.8695616            0   -2.8989055    22.319648            0   0.35665396 
  864000     672.2391   -891.07727    1165.9168    130.05791    66.125963    63.931947    17.854199    16.704375    13.174541            0   -3.7099243    19.908757            0   0.35665396 
  868000    576.42581    1400.6441    1165.9168    125.78292    56.701123    69.081794    19.106397    24.021726    12.267264            0   -2.6723378    16.358745            0   0.35665396 
  872000    322.54031    -7151.715    1165.9168    114.15042    31.727236    82.423189    27.369162    26.181585    9.9377243            0   -3.6496984    22.584416            0   0.35665396 
  876000    573.82616    2770.0748    1165.9168    142.71022    56.445404     86.26482    27.119789    28.918732    8.6868579            0   -3.3268103    24.866252            0   0.35665396 
  880000    487.02126     -1321.41    1165.9168    136.79434    47.906689    88.887651    24.757213    25.989937    14.220487            0    -2.507522    26.427537            0   0.35665396 
  884000    443.69435   -3047.8817    1165.9168    122.71472    43.644763    79.069955    27.388376    20.459365    10.188239            0  -0.62155524    21.655531            0   0.35665396 
  888000    484.41112    2830.6561    1165.9168    139.85573    47.649938    92.205792    26.011685    31.131221    17.893218            0   -3.6106643    20.780332            0   0.35665396 
  892000    620.87362    4277.4898    1165.9168    143.99216    61.073309    82.918851    25.744568    24.251421    8.2014991            0   -3.4506609    28.172024            0   0.35665396 
  896000    531.46565    824.41272    1165.9168    130.53733    52.278539    78.258794    9.6311876    29.820426    15.168681            0   -1.2274181    24.865917            0   0.35665396 
  900000    689.52585    2053.8437    1165.9168    142.83662    67.826404    75.010211    27.090397    18.707113    9.9633025            0   -4.2440946    23.493494            0   0.35665396 
  904000    522.98754    4824.3132    1165.9168    128.98503    51.444575    77.540454      18.5896    33.117444    9.4470059            0   -3.1356935    19.522098            0   0.35665396 
  908000     601.1357    4808.0892    1165.9168     126.2456    59.131754    67.113846     22.46343    20.338283    8.1316552            0   -2.7717261    18.952203            0   0.35665396 
  912000    595.70278    4999.2373    1165.9168    128.99793    58.597336    70.400595    14.967458    30.312784    6.7111153            0    -1.993788    20.403025            0   0.35665396 
  916000    757.98456    11548.719    1165.9168    138.10861    74.560464    63.548144    23.567005    13.181407    10.232399            0   -1.1780296    17.745363            0   0.35665396 
  920000    537.66178    80.339917    1165.9168    117.32932    52.888032    64.441284    14.288005    18.698145    13.149443            0   -4.7346196     23.04031            0   0.35665396 
  924000    639.55499    4936.0379    1165.9168    137.15816    62.910934    74.247227    17.300594     21.33431    13.859293            0    -2.880046    24.633076            0   0.35665396 
  928000    521.17748   -3039.6921    1165.9168    118.12518    51.266526    66.858658    16.871833    22.319454    10.180046            0   -6.3890031    23.876328            0   0.35665396 
  932000    461.50025   -2027.4293    1165.9168    119.87584    45.396272    74.479564     19.74977    24.201606     11.00188            0   -5.4348438    24.961152            0   0.35665396 
  936000    452.73276     5144.859    1165.9168    107.08276    44.533842    62.548923    16.905585    17.651376    7.4465614            0  -0.84986632    21.395266            0   0.35665396 
  940000    465.59023    87.992701    1165.9168    120.60099    45.798589    74.802398    23.709679    20.721947    8.7609349            0  -0.88348108    22.493318            0   0.35665396 
  944000    560.69297     1849.581    1165.9168    148.40072    55.153535    93.247188     22.13382    36.259942    10.852631            0   -2.3778762    26.378671            0   0.35665396 
  948000    705.95486     5573.442    1165.9168    129.01955    69.442472    59.577082    18.950905    16.742104    9.8117153            0   -3.5976691    17.670027            0   0.35665396 
  952000     531.3448    2204.7312    1165.9168    125.11067    52.266651    72.844018    15.651151    24.884576    12.662422            0     -1.58479    21.230658            0   0.35665396 
  956000    684.80793   -2763.0362    1165.9168    151.75537    67.362318     84.39305    20.377247    26.378325    12.680569            0    1.6146605    23.342247            0   0.35665396 
  960000    417.13124    788.22737    1165.9168    112.60288    41.031836    71.571048    24.110025    19.240102    7.9595449            0   -2.4833832    22.744759            0   0.35665396 
  964000    749.26234    2742.6969    1165.9168    137.80877    73.702487    64.106288    15.138753    21.774031    9.7490866            0   -4.3927326     21.83715            0   0.35665396 
  968000    566.99785   -1667.0602    1165.9168    130.31974    55.773725    74.546019    25.325036     22.81532    6.4200461            0   -4.1071486    24.092765            0   0.35665396 
  972000    491.42748    183.60092    1165.9168    111.23634    48.340115     62.89622    13.634092    20.256274    10.221915            0   -2.6363806     21.42032            0   0.35665396 
  976000    496.44596     854.7884    1165.9168    109.95385    48.833766    61.120088    19.250853    19.787397    9.6660889            0   -5.6913212    18.107071            0   0.35665396 
  980000    404.90921   -2625.3818    1165.9168      110.354    39.829595     70.52441    14.292534    28.431393     10.76898            0   -4.7527516    21.784254            0   0.35665396 
  984000    577.38944    8103.1792    1165.9168    133.78123    56.795912    76.985323    17.039246    31.257249    7.3632498            0    0.3891119    20.936466            0   0.35665396 
  988000    585.64618    7520.3768    1165.9168    130.46867    57.608101    72.860564    15.957292    23.642275    11.316326            0   -2.1537522    24.098424            0   0.35665396 
  992000    609.52283    -1209.934    1165.9168    132.52546    59.956768    72.568691    18.576864    25.290535    9.8382245            0   -3.9290964    22.792164            0   0.35665396 
  996000    554.41779    3539.4898    1165.9168    120.07787    54.536265    65.541605    15.395985    22.255478    9.7044419            0   -3.9411169    22.126817            0   0.35665396 
 1000000    563.44708   -29.663847    1165.9168    147.03161    55.424448    91.607157    23.540386    37.777061    12.391565            0   -2.2351079    20.133253            0   0.35665396 
 1004000    581.20824    817.12443    1165.9168    137.69962    57.171555    80.528063    18.301984    23.191175    15.385777            0    -3.010624     26.65975            0   0.35665396 
 1008000    533.86973    1141.1736    1165.9168      128.536    52.515021    76.020974    17.009967    27.423692    12.121204            0    -4.970771    24.436882            0   0.35665396 
 1012000    444.39208   -2316.4894    1165.9168    120.99073    43.713397    77.277329    22.980501    21.542949    8.3887635            0   -2.1800884    26.545203            0   0.35665396 
 1016000      433.108   -5538.0348    1165.9168    117.29915    42.603418    74.695736    23.695336      24.2995     11.62679            0   -1.8074831    16.881593            0   0.35665396 
 1020000    569.57133    -689.9322    1165.9168    134.18032     56.02687    78.153446    19.297663    29.455731    14.422904            0   -2.6600025    17.637149            0   0.35665396 
 1024000    538.34032    290.30531    1165.9168    121.28735    52.954777    68.332571    15.538046    16.633863    18.453665            0   -4.1196107    21.826608            0   0.35665396 
 1028000    572.37697   -3455.0193    1165.9168    130.06338    56.302852    73.760527    16.660851    22.774318    18.079606            0   -4.5046444    20.750396            0   0.35665396 
 1032000    523.07131     1531.881    1165.9168    128.25733    51.452815    76.804517    19.946124    29.349047     8.546327            0   -4.5235958    23.486616            0   0.35665396 
 1036000    557.61894   -2159.7751    1165.9168    133.53866    54.851152    78.687506    28.432851    20.672373    9.6248351            0   -4.1694634    24.126911            0   0.35665396 
 1040000    544.05581    1388.9286    1165.9168    138.65894    53.516992    85.141949    25.850902    26.647016    16.186227            0   -4.5395392    20.997343            0   0.35665396 
 1044000    560.20627   -4851.6916    1165.9168    119.56454    55.105659    64.458883     20.70512    20.131687    7.0361603            0   -4.5464617    21.132377            0   0.35665396 
 1048000    611.71019   -142.35513    1165.9168    124.93515    60.171932    64.763218    15.469593    21.095548    10.554404            0   -4.5373784    22.181051            0   0.35665396 
 1052000    432.29908    5497.4639    1165.9168    124.17262    42.523848    81.648768    17.770048    30.836996    11.724038            0    1.9078521    19.409833            0   0.35665396 
 1056000    492.11494   -6291.6311    1165.9168     114.9532    48.407738    66.545459    18.134712    20.129216    12.070094            0   -3.8053274    20.016764            0   0.35665396 
 1060000    689.22851    3450.9276    1165.9168    147.87642    67.797156    80.079263    12.684279    30.135448    12.823173            0    3.6362922    20.800071            0   0.35665396 
 1064000    654.77031    1700.2806    1165.9168     144.3252    64.407615    79.917589     20.70122    27.342952    11.782425            0   -4.1580554    24.249047            0   0.35665396 
 1068000    487.84685    3470.1882    1165.9168    108.31842      47.9879    60.330524    13.623241    23.350068    6.1028858            0   -3.8838649    21.138193            0   0.35665396 
 1072000    635.16428   -4474.5957    1165.9168    146.21891    62.479034    83.739873    26.555073    22.971751    14.288754            0   -3.8070938    23.731389            0   0.35665396 
 1076000    640.46211    5378.9746    1165.9168    142.71184    63.000165    79.711674    24.018131    23.643311    13.479451            0   -3.3367406    21.907522            0   0.35665396 
 1080000    500.83087   -1866.4053    1165.9168    113.12792    49.265096    63.862828    20.737802    23.753014    5.6763372            0   -3.9991253    17.694801            0   0.35665396 
 1084000    494.94925   -7987.4924    1165.9168    112.08006     48.68654     63.39352    15.761151    22.162427    7.4589417            0   -4.0051184    22.016119            0   0.35665396 
 1088000    663.18888   -5304.6032    1165.9168     140.8448    65.235723    75.609075    17.196072    28.703357    10.653595            0   -1.9319793    20.988029            0   0.35665396 
 1092000      494.963    2640.7774    1165.9168    119.68466    48.687893     70.99677    17.490434    29.885672    8.6859664            0   -1.2630074    16.197705            0   0.35665396 
 1096000    553.16718   -3098.8016    1165.9168     136.9274    54.413248    82.514154    23.417185    21.137315    9.8583274            0   -4.0764486    32.177776            0   0.35665396 
 1100000    564.02996    593.05989    1165.9168    120.44268    55.481784    64.960897    16.102115    18.895667     6.879567            0   -3.7915937    26.875143            0   0.35665396 
 1104000    698.23202    2669.6964    1165.9168    128.37752    68.682802     59.69472    12.335736    19.086844      10.2951            0   -1.0061725    18.983212            0   0.35665396 
 1108000    405.48898   -304.95741    1165.9168    130.12091    39.886625    90.234281    18.356022    31.948846    12.965413            0     0.716445    26.247556            0   0.35665396 
 1112000    491.10218    2749.3072    1165.9168    122.57521    48.308116    74.267094    19.501819    29.760618    8.2057299            0    -4.514818    21.313744            0   0.35665396 
 1116000    537.63791      5338.35    1165.9168    118.99405    52.885684    66.108361    18.989132    25.611543    6.5835929            0   -1.9396626    16.863757            0   0.35665396 
 1120000    555.58621    2150.2403    1165.9168    120.16942      54.6512    65.518217    18.137277    18.982152    12.151236            0   -3.6008003    19.848352            0   0.35665396 
 1124000    508.85602   -7416.7336    1165.9168    124.58801    50.054503    74.533504      22.2598    26.989652    9.9523416            0   -3.1185866    18.450297            0   0.35665396 
 1128000    539.76021    7194.0245    1165.9168     115.9903    53.094448    62.895856    16.957569    16.103162     8.342345            0   -4.5000673    25.992847            0   0.35665396 
 1132000    575.38451   -2194.1042    1165.9168    149.05648    56.598693    92.457784    28.383348    31.463169    9.0897987            0   -1.2134902    24.734959            0   0.35665396 
 1136000    456.50568   -665.78939    1165.9168    114.98999    44.904972    70.085017    17.437256    21.222864    13.140398            0   -3.9214371    22.205937            0   0.35665396 
 1140000    660.99605    2600.8976    1165.9168    140.09415    65.020021    75.074125    14.845737    30.829584    14.070803            0   -5.2627412    20.590742            0   0.35665396 
 1144000    608.50232    3648.4744    1165.9168    130.87109    59.856384    71.014705    20.078946    22.147802    11.107863            0   -3.3568335    21.036928            0   0.35665396 
 1148000    560.88656   -7088.2925    1165.9168    131.07609    55.172578    75.903509    24.550217    24.254913    8.7450015            0    -5.425917    23.779294            0   0.35665396 
 1152000    503.63255    5868.3255    1165.9168     116.1947    49.540688    66.654016    17.537131    28.266797    11.183942            0   -2.4880401    12.154185            0   0.35665396 
 1156000    577.62285    1145.6148    1165.9168    121.04029    56.818872    64.221417    13.562416    25.331916    10.773048            0   -3.9297308    18.483769            0   0.35665396 
 1160000    715.16544    11197.714    1165.9168     145.6562    70.348487    75.307708    19.198491    25.260006    10.913006            0   -2.8502154    22.786421            0   0.35665396 
 1164000    609.07071   -5507.2208    1165.9168    124.10126    59.912295    64.188967    19.213065    21.296363    7.9700285            0   -2.1196991     17.82921            0   0.35665396 
 1168000    676.00328   -937.15686    1165.9168    165.93179    66.496233    99.435558    43.133642    28.175114    8.1079227            0   -3.6337194    23.652599            0   0.35665396 
 1172000    446.78821   -1877.7487    1165.9168    104.85824    43.949096    60.909146    15.903989    19.730031    6.5318277            0   -4.2189553    22.962253            0   0.35665396 
 1176000     457.3906    550.81725    1165.9168     115.3999    44.992019    70.407886    16.650197    29.202981    11.032052            0   -4.2654852    17.788141            0   0.35665396 
 1180000     542.2941    2588.9356    1165.9168    136.71821    53.343698    83.374516    21.944228    29.705757    16.457073            0   -3.5862619     18.85372            0   0.35665396 
 1184000    564.94548    1122.7283    1165.9168    127.52393    55.571841    71.952092    14.440781    22.125957    13.011996            0   -4.5760814     26.94944            0   0.35665396 
 1188000    530.75745   -1625.0583    1165.9168    119.67316    52.208876    67.464287    12.244674    25.385982    13.326338            0   -5.8926856    22.399978            0   0.35665396 
 1192000    429.06678    4222.0454    1165.9168    120.76253    42.205896    78.556634    27.084924    21.542486    10.766308            0    -4.610674    23.773591            0   0.35665396 
 1196000    434.98269   -5352.3085    1165.9168    100.02797    42.787826    57.240141    13.536925     19.62272    8.1492514            0   -4.1474578    20.078702            0   0.35665396 
 1200000    633.31784    3293.0834    1165.9168    122.84462    62.297406    60.547212     12.95885    17.502548    15.198684            0   -3.6454618    18.532592            0   0.35665396 
 1204000      550.074      1579.63    1165.9168    116.96952    54.108982    62.860539    14.100677    14.720302      19.2291            0   -2.2256474    17.036108            0   0.35665396 
 1208000    592.47843    2579.6577    1165.9168    122.38092    58.280167    64.100754    17.767522    19.150075    9.1002683            0   -3.8640926    21.946982            0   0.35665396 
 1212000    549.20828    4942.0941    1165.9168    120.97682    54.023824    66.952994    21.239765    20.302721    7.1095558            0   -3.9582388    22.259191            0   0.35665396 
 1216000    392.14441   -779.30497    1165.9168    118.62221    38.573964    80.048241    21.692761    26.114346    14.133154            0   -4.7056201    22.813601            0   0.35665396 
 1220000    708.59012   -5550.3179    1165.9168    137.00125    69.701694    67.299554    15.268721    19.830725    13.408733            0    -5.004508    23.795883            0   0.35665396 
 1224000     575.3938     2395.653    1165.9168    127.93257    56.599608     71.33296    12.593056    25.942349    15.024269            0   -2.9734792    20.746765            0   0.35665396 
 1228000    487.44801    2018.1195    1165.9168    113.33096    47.948668     65.38229    19.203196    20.169848    8.5528018            0   -3.0069696    20.463414            0   0.35665396 
 1232000    574.72889   -2049.9938    1165.9168    131.98477    56.534203     75.45057    17.203348    29.703988    10.929815            0    -2.230256    19.843674            0   0.35665396 
 1236000    607.08893    75.162241    1165.9168    132.98491    59.717354    73.267559    21.751718    25.694377    10.817949            0   -3.3401653    18.343681            0   0.35665396 
 1240000    616.70615    4935.1554    1165.9168    140.79485    60.663368    80.131485    25.946667    20.001562    13.609806            0   -3.8987415    24.472192            0   0.35665396 
 1244000    561.05404    7619.2347    1165.9168    131.46589    55.189052    76.276838    21.439125    18.722779    12.887054            0   -1.1674351    24.395315            0   0.35665396 
 1248000    559.11451    1781.3639    1165.9168    117.62564    54.998267    62.627375    17.841967    19.303881     8.230469            0   -3.1529384    20.403997            0   0.35665396 
 1252000    640.41125    -393.6621    1165.9168    131.55944    62.995161    68.564276    11.733148    24.371797    12.165023            0   -3.8079338    24.102243            0   0.35665396 
 1256000    476.56895   -2727.2531    1165.9168    117.63646     46.87853    70.757935    19.095138    21.551562    10.368383            0   -4.0164533    23.759305            0   0.35665396 
 1260000    575.74756   -3619.3979    1165.9168    123.53891    56.634406    66.904509    18.331178    21.116567    9.3071137            0   -4.2055116    22.355162            0   0.35665396 
 1264000    543.74604   -1960.0031    1165.9168    112.82906    53.486521    59.342537    16.033055    20.394153    8.3544243            0   -4.8028562    19.363762            0   0.35665396 
 1268000    600.03845   -606.40374    1165.9168    137.88285    59.023821    78.859025    17.521563    29.671541    11.157949            0   -5.5051465    26.013119            0   0.35665396 
 1272000     391.6654    3503.2197    1165.9168    99.357508    38.526845    60.830663    12.678642     19.02349    7.6801848            0   -2.4172451    23.865591            0   0.35665396 
 1276000    453.97289    2019.2351    1165.9168    118.35746    44.655829    73.701634    15.322503    25.847601    12.184622            0   -4.0826403    24.429549            0   0.35665396 
 1280000    531.81071   -732.38519    1165.9168    121.02718    52.312482    68.714697    15.888376     25.53974    11.188646            0   -4.1631354    20.261071            0   0.35665396 
 1284000    510.13107   -825.37866    1165.9168     132.3819    50.179926    82.201975    24.846518    27.984123    14.836274            0   -2.7482395      17.2833            0   0.35665396 
 1288000    446.75359    -171.7354    1165.9168     114.8422     43.94569    70.896514    15.224791    24.591251     14.12565            0   -4.4026583     21.35748            0   0.35665396 
 1292000    627.58263   -4481.9342    1165.9168    128.53444    61.733252    66.801186     16.09738     19.97701    14.256319            0    -1.687858    18.158335            0   0.35665396 
 1296000    433.28772   -276.31506    1165.9168    109.13592    42.621097    66.514822    16.762853    19.288517    11.801113            0   -5.6640377    24.326378            0   0.35665396 
 1300000    473.41479     4818.625    1165.9168    124.03866    46.568266    77.470398    19.345001    27.500764      12.4975            0   -1.9083864    20.035519            0   0.35665396 
 1304000    619.90417    -3475.586    1165.9168    140.62561    60.977947    79.647662     17.59265    30.475783     9.636278            0   -1.5716211    23.514572            0   0.35665396 
 1308000    547.70904    1389.7534    1165.9168    125.66277    53.876348    71.786422    19.488162    28.499859    10.537868            0   -3.4154126    16.675945            0   0.35665396 
 1312000    584.91221   -3364.8127    1165.9168    142.05363    57.535903    84.517723    28.963322    29.380985     10.46316            0   -3.2875091    18.997765            0   0.35665396 
 1316000    480.36401   -11697.008    1165.9168    119.12981    47.251837    71.877975    22.016112    21.270341     10.81479            0   -5.7099371    23.486669            0   0.35665396 
 1320000    575.82152   -1424.2898    1165.9168    128.54715    56.641681    71.905469    15.657885    28.018543    13.838034            0   -4.7797818    19.170789            0   0.35665396 
 1324000    494.40565   -10731.753    1165.9168    116.95754    48.633068    68.324476    19.268776    23.503715    9.8804714            0   -5.1898002    20.861314            0   0.35665396 
 1328000    516.41092     685.7254    1165.9168    118.31434    50.797654    67.516685    18.139523    27.671479    9.4594307            0   -3.1149645    15.361216            0   0.35665396 
 1332000     613.7858   -5126.4939    1165.9168    132.31643    60.376103    71.940328    12.496444    34.778373    6.4553226            0   -5.0517051    23.261894            0   0.35665396 
 1336000    436.78898    8675.2639    1165.9168    125.11053    42.965504    82.145029    19.161338    26.900186    15.681127            0   -4.4263123    24.828691            0   0.35665396 
 1340000    404.37423   -574.60743    1165.9168    110.52236    39.776972    70.745391    17.947109    26.049269    8.8792321            0    -4.896289     22.76607            0   0.35665396 
 1344000    523.46553    3995.0921    1165.9168     132.7633    51.491594    81.271705    15.383535    37.191222    10.858564            0   -2.1909151    20.029299            0   0.35665396 
 1348000    385.02358    1882.8822    1165.9168    118.22869    37.873512    80.355182    19.596607    27.502441    11.644884            0   -4.1427313    25.753982            0   0.35665396 
 1352000    573.52883   -3625.0245    1165.9168    115.88779    56.416157     59.47163    16.369278    21.654201    9.3781438            0   -4.3522912    16.422298            0   0.35665396 
 1356000    471.49051   -5528.7084    1165.9168    129.99812    46.378981    83.619135    16.604094    30.697264    13.435734            0   -2.6987136    25.580757            0   0.35665396 
 1360000    517.07738    4470.6675    1165.9168    135.67532    50.863212    84.812107    29.877359    21.339374    13.642484            0   -4.3300796     24.28297            0   0.35665396 
 1364000    417.51514    1879.7537    1165.9168     105.5453    41.069599    64.475703    17.089887     15.64315    12.909791            0   -3.0216718    21.854546            0   0.35665396 
 1368000    472.28516     2039.055    1165.9168    120.42338    46.457148    73.966231    15.192844    20.010105    15.032888            0  -0.18407135    23.914466            0   0.35665396 
 1372000    460.94214    2627.8094    1165.9168    108.66116    45.341372    63.319792    11.073125     24.80297    10.655307            0   -1.6560198    18.444411            0   0.35665396 
 1376000    547.02449    5853.4851    1165.9168    121.68516    53.809011    67.876152    16.850744    23.358555    11.401232            0    -4.610887    20.876509            0   0.35665396 
 1380000    526.81189   -7033.8383    1165.9168    142.66313    51.820763    90.842363    28.802476    32.187304    12.813542            0   -4.3522565    21.391298            0   0.35665396 
 1384000    506.43698   -5066.4804    1165.9168    125.41523     49.81655    75.598681    20.312635    21.335257    10.948888            0    -3.540981    26.542882            0   0.35665396 
 1388000    472.66375    -4715.685    1165.9168    126.03337    46.494388    79.538977    23.779934    25.486621    11.320132            0   -2.0033709    20.955661            0   0.35665396 
 1392000    522.70946    4872.4399    1165.9168    138.89496    51.417222    87.477741    15.494638    32.807581    18.778141            0   -1.7631954    22.160577            0   0.35665396 
 1396000    623.25784   -689.89455    1165.9168    124.80548    61.307836    63.497642     11.16758    17.142554    15.112955            0   -3.3433111    23.417864            0   0.35665396 
 1400000    549.79877    3027.2902    1165.9168     128.5284    54.081908    74.446489    14.035852     21.90229    14.530236            0   -3.9347576    27.912869            0   0.35665396 
 1404000    680.98546    6224.3686    1165.9168    148.25855    66.986314     81.27224    10.192774    33.243317    12.008059            0   -2.1057402    27.933831            0   0.35665396 
 1408000     493.9613   -4551.1783    1165.9168    137.81897    48.589359    89.229612    35.422773    21.794997    13.701078            0   -5.6031193    23.913883            0   0.35665396 
 1412000    476.12363    437.06928    1165.9168    118.74553    46.834725     71.91081    16.464324    23.719933     8.008714            0   -1.1689481    24.886787            0   0.35665396 
 1416000    464.96237   -1141.3971    1165.9168    128.20896    45.736829     82.47213    18.721212    31.157616     12.68818            0  -0.72219238    20.627315            0   0.35665396 
 1420000    503.49623   -6134.1172    1165.9168    125.80625    49.527278    76.278969    28.412918    25.967289    9.1243567            0   -2.6398945    15.414299            0   0.35665396 
 1424000    504.18941    4932.8818    1165.9168    117.03236    49.595464    67.436895    12.239961    23.304967    12.474578            0  -0.57569235    19.993082            0   0.35665396 
 1428000    681.72289     3450.984    1165.9168    142.44561    67.058852     75.38676    23.199314    27.739477    9.2559649            0   -2.4113014    17.603305            0   0.35665396 
 1432000    536.88241   -6178.9671    1165.9168    138.17857    52.811368    85.367202    18.450224     31.00011    16.251526            0   -3.7548371    23.420179            0   0.35665396 
 1436000    561.60225   -2099.3276    1165.9168     138.5901    55.242978    83.347127    25.715542    25.692364    16.614416            0     -5.00752    20.332325            0   0.35665396 
 1440000    583.54616   -4025.2735    1165.9168    135.97351    57.401528    78.571977    17.538211    29.298061    12.643812            0   -3.5311825    22.623075            0   0.35665396 
 1444000    611.98586   -3953.5823    1165.9168    126.33279    60.199049     66.13374    18.945982    26.330435    10.588151            0   -4.1195062    14.388678            0   0.35665396 
 1448000    580.36598   -3191.0016    1165.9168    121.06408    57.088705    63.975371     24.01066    15.095186    13.287415            0   -5.7359522    17.318063            0   0.35665396 
 1452000     597.4619    4271.0145    1165.9168    134.42137    58.770374    75.650996    20.516974    22.341653    7.6363958            0   -1.1031139    26.259087            0   0.35665396 
 1456000    486.98455    7674.0951    1165.9168      116.747    47.903079    68.843923    18.839706    19.661446     10.63376            0   -1.9311821    21.640193            0   0.35665396 
 1460000    590.54916    1657.1819    1165.9168    145.46651    58.090391    87.376118    23.868979    31.000083    12.477004            0   -3.6828277     23.71288            0   0.35665396 
 1464000    496.12076    4901.8027    1165.9168     127.5932    48.801777    78.791424    15.810954    27.144641    12.308389            0   -1.2985915    24.826031            0   0.35665396 
 1468000    593.17454   -979.13001    1165.9168    118.78319     58.34864    60.434546    14.014452    23.493127    8.3302525            0   -2.9169141    17.513629            0   0.35665396 
 1472000    637.17201   -10897.965    1165.9168    141.80949    62.676528    79.132961    27.075726    23.485158    11.078906            0   -6.5377047    24.030875            0   0.35665396 
 1476000     507.8108    7263.7831    1165.9168    120.94032    49.951688     70.98863    16.887762    16.948983    13.557992            0   -3.2126448    26.806537            0   0.35665396 
 1480000    499.42834    2807.8927    1165.9168    125.22809    49.127134    76.100961    17.985126    25.301565    11.778619            0   -3.4915576    24.527208            0   0.35665396 
 1484000    421.82328   -10387.101    1165.9168    121.96082    41.493377    80.467444    19.427995    27.264052    13.864058            0   -3.1625121    23.073851            0   0.35665396 
 1488000    637.36466   -2059.5336    1165.9168      119.331    62.695478    56.635523    14.229002    22.295799    9.9571186            0    -2.497326    12.650929            0   0.35665396 
 1492000    626.29051   -4240.7867    1165.9168    129.13167     61.60615    67.525517    12.676631    24.719143    11.981707            0   -2.7420853    20.890121            0   0.35665396 
 1496000    508.07405    1060.5495    1165.9168    132.88861    49.977584    82.911026    23.840484    29.606043    17.170063            0   -4.9813073    17.275743            0   0.35665396 
 1500000    542.82337    2938.6765    1165.9168    129.47732     53.39576    76.081563    27.387917    18.850389     11.34135            0   -2.8255893    21.327497            0   0.35665396 
 1504000    535.69974   -4913.8093    1165.9168    113.80844    52.695032    61.113405    17.054673    24.543331    4.6672125            0   -2.5421625    17.390352            0   0.35665396 
 1508000    546.49818    2452.2021    1165.9168    133.19414     53.75724    79.436899    19.066412    23.478092      16.1264            0    2.0257317    18.740264            0   0.35665396 
 1512000    467.36471   -3363.0209    1165.9168    112.05505    45.973139    66.081907    15.085942    22.460671    9.7787305            0   -2.4105855    21.167149            0   0.35665396 
 1516000    561.15048    6320.6952    1165.9168    129.60229    55.198538    74.403753    21.658081    23.000822    7.1740621            0   -3.2344783    25.805266            0   0.35665396 
[...]
44620000    242.59163     418.3118    1165.9168     77.09808    23.862946    53.235134    10.844358    16.607242    7.8292648            0     -2.21129    20.165559            0   0.35665396 
44624000    236.08902   -1391.6509    1165.9168    72.402234    23.223305    49.178929    9.1402012    14.131123    8.4419747            0    -4.584835    22.050466            0   0.35665396 
44628000    318.18775   -5175.2681    1165.9168     81.68952    31.299089    50.390432    12.430469     16.56858    8.7302917            0   -4.4169086    17.077999            0   0.35665396 
44632000    285.61108   -3143.9825    1165.9168    75.406709    28.094629     47.31208    9.2091531    16.354694    9.4540183            0   -4.1492286    16.443443            0   0.35665396 
44636000    281.61001    -2529.903    1165.9168    74.515838    27.701056    46.814781    12.360995    11.987434    11.100928            0    -5.098274    16.463698            0   0.35665396 
44640000    333.21092   -3903.4424    1165.9168    87.148492    32.776869    54.371623    11.021653    16.774709    10.634143            0   -3.8677345    19.808852            0   0.35665396 
44644000    337.86167   -730.11572    1165.9168    84.145702    33.234349    50.911353    10.801211    14.884193    8.0020883            0   -4.0979696     21.32183            0   0.35665396 
44648000    354.24659     3192.617    1165.9168    86.150917    34.846079    51.304838    8.5729216    17.944856    5.7017673            0    -4.475502    23.560795            0   0.35665396 
44652000    313.29409    6666.2587    1165.9168    80.399402    30.817716    49.581687    10.483917    15.714892    5.1349621            0   -4.2689128    22.516828            0   0.35665396 
44656000    338.57532    395.07218    1165.9168     89.51824    33.304548    56.213692    10.052185    15.110127    10.625748            0   -4.5040015    24.929633            0   0.35665396 
44660000    327.90252   -1983.4658    1165.9168    83.649354    32.254699    51.394655    7.8411498    15.377123    7.7669876            0   -4.4356241    24.845018            0   0.35665396 
44664000    343.34734    3707.2382    1165.9168    86.834153    33.773956    53.060197    13.471708    11.929658    7.1137219            0   -4.5642075    25.109317            0   0.35665396 
44668000    343.58758   -659.84489    1165.9168    86.815081    33.797588    53.017494    14.175322    15.313136    6.1373152            0   -3.6000284    20.991749            0   0.35665396 
44672000    291.11905    4382.7288    1165.9168    79.293207    28.636429    50.656778    14.188588    16.700416    6.4707141            0   -3.8828822    17.179942            0   0.35665396 
44676000     337.0281    1607.9543    1165.9168     83.37021    33.152353    50.217857    7.9142264    18.389614    5.3874393            0   -3.2779147    21.804492            0   0.35665396 
44680000    379.15344    525.65946    1165.9168    82.234907    37.296085    44.938822    9.1322344    10.197148    8.2486447            0   -4.9081101    22.268905            0   0.35665396 
44684000    266.47539   -339.19485    1165.9168     81.73811    26.212313    55.525797    12.277094    17.702591    7.2850705            0   -4.6087988     22.86984            0   0.35665396 
44688000     308.1341    1421.0864    1165.9168    75.355229    30.310145    45.045085    7.6126612    14.930409    9.0226357            0   -4.3474957    17.826874            0   0.35665396 
44692000     212.8213   -1069.2051    1165.9168    70.474533    20.934535    49.539997    10.191761    13.876716    7.8266133            0    -4.596821    22.241728            0   0.35665396 
44696000    317.79042   -1494.7984    1165.9168     76.03016    31.260005    44.770154     8.106503    13.535101    8.7302054            0   -4.4460622    18.844407            0   0.35665396 
44700000    281.96419    99.669069    1165.9168     74.01475    27.735895    46.278854    13.312292    14.976819    4.1889496            0   -3.7773108    17.578105            0   0.35665396 
44704000    263.50313    2482.6814    1165.9168    70.503479    25.919942    44.583537     8.513528    12.175323    10.994199            0   -4.4328612    17.333349            0   0.35665396 
44708000    286.42668    -4526.603    1165.9168    83.280818    28.174857    55.105961    16.910458    14.995919    7.0338862            0   -5.2926624     21.45836            0   0.35665396 
44712000    394.05546     446.5281    1165.9168    95.212713    38.761947    56.450766    12.421849    16.422862    7.1616984            0   -5.0941462    25.538503            0   0.35665396 
44716000    277.59826   -161.05072    1165.9168    73.095133    27.306433      45.7887    11.478221    10.037398    8.1771126            0   -3.2534862    19.349455            0   0.35665396 
44720000    247.83531   -841.95963    1165.9168    70.983609    24.378749     46.60486    15.120216    15.537777    4.2866427            0   -2.7523947    14.412619            0   0.35665396 
44724000    335.17224   -3586.1839    1165.9168    81.183986    32.969798    48.214188    12.352512    13.302251    10.178905            0   -4.7981413    17.178662            0   0.35665396 
44728000    287.91489   -4429.7984    1165.9168    79.800106    28.321246     51.47886    12.165085    15.123411    8.7077893            0   -4.1912718    19.673846            0   0.35665396 
44732000    229.54378   -28.549961    1165.9168    78.450939    22.579472    55.871467    12.926999    11.733989    8.7707226            0   -2.6954068    25.135164            0   0.35665396 
44736000    276.69065    560.90117    1165.9168    81.459309    27.217155    54.242153    14.966986    12.644624    7.4563886            0   -4.8421221    24.016277            0   0.35665396 
44740000    314.99097    505.88474    1165.9168    81.527539    30.984633    50.542906    9.4398173    17.208743    9.4112088            0   -4.9124149    19.395552            0   0.35665396 
44744000    354.37007   -755.26709    1165.9168    90.824569    34.858225    55.966343    13.052769    19.480879    8.0066525            0   -4.1465578    19.572601            0   0.35665396 
44748000    341.74005    9423.3644    1165.9168    81.503677    33.615852    47.887825    13.231196     10.13517    6.0737319            0    -3.997252    22.444979            0   0.35665396 
44752000    362.49481   -1252.2853    1165.9168    82.598293    35.657429    46.940863    9.2304036    15.484448    5.2737775            0   -4.9476751     21.89991            0   0.35665396 
44756000    291.03465    4078.4057    1165.9168    72.820566    28.628127    44.192439    6.5608624    14.845139    5.7426825            0   -3.8520121    20.895767            0   0.35665396 
44760000    294.82698    2016.3475    1165.9168    73.623484    29.001166    44.622317    10.041446    12.756832    6.9308893            0   -4.2450785    19.138228            0   0.35665396 
44764000     330.2173     605.9741    1165.9168    77.341634    32.482397    44.859237    6.6700051    15.618176    6.2433869            0   -1.8792841    18.206953            0   0.35665396 
44768000    273.37069   -2637.2203    1165.9168     86.86772    26.890581    59.977138    12.548275    16.267902    12.918072            0   -5.4804902    23.723379            0   0.35665396 
44772000    379.74377    4416.8692    1165.9168    95.035254    37.354154      57.6811    15.182005    20.333984    11.683296            0   -4.0025643    14.484379            0   0.35665396 
44776000    340.41122    2244.5581    1165.9168    83.375952    33.485139    49.890813    9.7696964    19.669041    9.2780684            0   -5.3640785    16.538086            0   0.35665396 
44780000    285.06888    -6105.639    1165.9168    82.687023    28.041294    54.645729    14.629673    17.357832    6.1292042            0   -3.1307402     19.65976            0   0.35665396 
44784000    405.30846    3153.9679    1165.9168    85.945814    39.868869    46.076945    10.875841    10.864016    5.5036191            0    -4.567726    23.401194            0   0.35665396 
44788000     322.2788   -1774.1667    1165.9168    71.770428    31.701512    40.068916    8.4372027    13.997272    4.9918529            0    -4.212699    16.855287            0   0.35665396 
44792000    301.68817   -4129.1353    1165.9168    80.042205    29.676079    50.366126     12.20224    14.723023    9.5640157            0   -3.5602245    17.437072            0   0.35665396 
44796000    393.46791   -3968.6876    1165.9168    83.131857    38.704153    44.427704    11.352467    10.696872    7.6976345            0   -5.7015311    20.382262            0   0.35665396 
44800000    294.28945   -2299.0712    1165.9168    81.534007    28.948291    52.585715    10.853616    17.179623    5.6753358            0   -4.0892662    22.966407            0   0.35665396 
44804000    214.68012    4801.8138    1165.9168    65.340114    21.117382    44.222732    10.976728    12.391482    5.3301476            0   -2.4854932    18.009868            0   0.35665396 
44808000    352.49174    595.01021    1165.9168    83.325877     34.67346    48.652417    8.0372969    15.708625    7.1881417            0     -4.43391    22.152263            0   0.35665396 
44812000    233.46189    1621.3265    1165.9168    68.321684    22.964883    45.356801    8.2897054    13.623107    4.0160654            0   -5.3014036    24.729326            0   0.35665396 
44816000    390.69963   -4899.5452    1165.9168    89.010079    38.431846    50.578232    12.129872    14.238766    7.1637959            0   -3.9045184    20.950317            0   0.35665396 
44820000    273.54381   -2588.1265    1165.9168    88.935265    26.907611    62.027654      13.4728     17.93827    10.487732            0   -3.8459386    23.974791            0   0.35665396 
44824000    310.52244   -632.75039    1165.9168    90.283334    30.545077    59.738257    15.555116     20.34209    6.6654806            0   -5.0948125    22.270383            0   0.35665396 
44828000    304.65508   -4316.1803    1165.9168    90.376079    29.967925    60.408154    14.726356    16.931225    5.9493671            0   -4.6654277    27.466635            0   0.35665396 
44832000     302.4157    11.615411    1165.9168    76.414782    29.747644    46.667139    8.8162413    11.106121    7.7104834            0   -3.6238354    22.658128            0   0.35665396 
44836000    365.76889   -1163.9103    1165.9168    91.216508     35.97949    55.237018    18.060894    12.910039     8.506754            0   -4.7255343    20.484865            0   0.35665396 
44840000    285.18936    4907.7941    1165.9168    79.716249    28.053145    51.663104    10.213745    14.295394    9.0803224            0   -2.6407212    20.714364            0   0.35665396 
44844000    299.68848   -2457.1457    1165.9168    82.114737    29.479376    52.635361    9.2106318    16.726315    6.6720012            0   -1.2088497    21.235263            0   0.35665396 
44848000    331.51302    1271.1535    1165.9168    89.791775    32.609852    57.181923    11.885172     17.70719    6.0718715            0    -2.784849    24.302539            0   0.35665396 
44852000      278.301    6278.0498    1165.9168    71.296272    27.375559    43.920713    7.0817048    10.045899    8.8155127            0   -3.8601968    21.837793            0   0.35665396 
44856000    322.66304    2133.7537    1165.9168    81.497852    31.739309    49.758543    8.6091558     15.42973    5.5042914            0   -4.1701525    24.385519            0   0.35665396 
44860000    268.25378   -4737.2374    1165.9168    75.545861    26.387248    49.158613     10.66501    12.381262    7.2663138            0   -5.2158769    24.061905            0   0.35665396 
44864000    281.97459   -4729.2832    1165.9168     81.57665    27.736919    53.839731    14.862826    11.860603    6.5599626            0   -4.0697344    24.626074            0   0.35665396 
44868000      234.807   -1119.1323    1165.9168     80.36754    23.097198    57.270343    14.551163    12.674376    8.0271209            0   -2.8795983    24.897281            0   0.35665396 
44872000    260.93738   -1148.3466    1165.9168    85.355308    25.667558    59.687751    14.050799    17.273739    12.555605            0    -4.145232     19.95284            0   0.35665396 
44876000    314.74587     5019.131    1165.9168    80.041144    30.960523    49.080621    12.647498    11.474654    6.6315453            0   -5.0680903    23.395014            0   0.35665396 
44880000    334.84688    -1661.209    1165.9168     89.11392    32.937793    56.176127    13.002757    18.258201    8.6067645            0   -5.2202512    21.528655            0   0.35665396 
44884000    247.42012   -5514.8407    1165.9168    67.784974    24.337908    43.447065    10.297588    11.104427    9.0289748            0   -3.9580794    16.974154            0   0.35665396 
44888000    259.27091   -687.46321    1165.9168    63.472286    25.503632    37.968654    5.8599362    10.338299    4.4787986            0   -4.3373353    21.628956            0   0.35665396 
44892000    288.76332    2970.9148    1165.9168    75.848933    28.404704    47.444229    6.3918521    14.587188    4.9233836            0   -2.4435221    23.985327            0   0.35665396 
44896000    309.56788   -5937.7038    1165.9168    84.287114    30.451181    53.835933    13.777334    13.664309    6.2048081            0   -4.6462664    24.835748            0   0.35665396 
44900000    338.13495   -968.54594    1165.9168    85.914529     33.26123    52.653299     7.281044    14.467842    6.4713815            0   -3.7886322    28.221664            0   0.35665396 
44904000    384.64661    -667.6818    1165.9168    91.744884    37.836429    53.908455    10.013063    15.084802    7.4306044            0   -5.2423793    26.622364            0   0.35665396 
44908000    299.68637    2955.7769    1165.9168    83.119211    29.479168    53.640042    10.827744    15.741962    5.9284658            0   -3.8048047    24.946674            0   0.35665396 
44912000     292.8787     2419.777    1165.9168    69.498729     28.80952    40.689209    9.3669915    10.882276     5.091985            0   -3.0305215    18.378478            0   0.35665396 
44916000    311.38127     2720.297    1165.9168    75.871485    30.629558    45.241927    8.0474252    12.359848    11.300201            0   -3.9693808    17.503834            0   0.35665396 
44920000     304.1021   -4608.3405    1165.9168    78.346409     29.91353    48.432879    6.9969676    12.739437     6.020654            0   -3.9398135    26.615633            0   0.35665396 
44924000    252.19349    1586.5014    1165.9168     74.16211     24.80745     49.35466    8.7118612    12.245338     6.286623            0   -3.8946987    26.005537            0   0.35665396 
44928000     320.1713    4485.8838    1165.9168    82.949197    31.494204    51.454993    11.511455    12.503983    7.7588206            0    -3.857818    23.538553            0   0.35665396 
44932000    401.09068     2896.222    1165.9168    84.404121    39.453979    44.950142    9.2365336    14.254747    7.6865063            0   -6.2344133    20.006769            0   0.35665396 
44936000    350.99888   -6066.2457    1165.9168    91.043107    34.526612    56.516495    13.456542    21.923422    11.600048            0   -6.3770494    15.913532            0   0.35665396 
44940000    390.40288   -290.69441    1165.9168    86.588045    38.402656    48.185389    7.8210321    16.284589    7.2255326            0   -4.9567259    21.810962            0   0.35665396 
44944000    368.94086   -2391.3025    1165.9168    93.611585    36.291507    57.320078    16.417416    13.719864    9.2739874            0    -3.929533    21.838343            0   0.35665396 
44948000    231.35549   -6383.0012    1165.9168    84.566077    22.757683    61.808393    14.368651    17.629848    7.8177461            0   -4.1536704    26.145818            0   0.35665396 
44952000     311.0547    1906.1061    1165.9168    80.271062    30.597434    49.673628    9.7830441    12.007928    5.9431529            0   -4.2626592    26.202162            0   0.35665396 
44956000    364.24895   -1100.1322    1165.9168    77.898735    35.829979    42.068756    5.9291997    10.388412    9.6811529            0   -3.4653295    19.535321            0   0.35665396 
44960000    226.63816    2522.1128    1165.9168    73.120001    22.293655    50.826347    13.199305    17.861932    8.0703552            0   -1.0986909    12.793446            0   0.35665396 
44964000    247.49263   -5911.5567    1165.9168    74.131069    24.345041    49.786028    11.410248    14.418118    6.2586219            0   -4.8939329    22.592972            0   0.35665396 
44968000    326.92747    794.49636    1165.9168    91.266564    32.158786    59.107778    14.326175    16.311635    9.1033283            0    -2.708069    22.074708            0   0.35665396 
44972000    269.28212    167.77091    1165.9168    71.701626    26.488402    45.213224    8.2714096    14.842322    7.1449608            0   -3.8021059    18.756637            0   0.35665396 
44976000    309.66711   -347.43539    1165.9168    85.172777    30.460942    54.711835    10.539315    17.230194    11.678663            0    -4.865425    20.129088            0   0.35665396 
44980000    289.98562    3337.9571    1165.9168    74.344563    28.524938    45.819625    11.030624    10.390905    7.2639437            0   -3.6409473    20.775099            0   0.35665396 
44984000     313.4821   -358.59111    1165.9168    82.928197    30.836209    52.091988    11.015107    17.535551    6.8265645            0   -4.5581027    21.272868            0   0.35665396 
44988000     248.7233    731.84131    1165.9168    69.400681    24.466099    44.934583    10.537125    12.957843     7.064237            0   -5.1074931    19.482871            0   0.35665396 
44992000    319.23548    136.95956    1165.9168    72.375755    31.402151    40.973604     7.624031    12.658062    5.4587337            0   -4.9674444    20.200221            0   0.35665396 
44996000    321.43715    1635.3332    1165.9168    81.141313    31.618722    49.522591    11.341681    10.221881    6.5751853            0    -2.985123    24.368966            0   0.35665396 
45000000     265.5304    -2551.338    1165.9168    67.409187    26.119358    41.289829    10.850463    12.882731    6.9669761            0   -6.1205554    16.710214            0   0.35665396 
45000013    308.70052   -2303.0497    1165.9168    75.350936    30.365861    44.985075    9.7214057    13.905092    7.2348492            0   -5.5672352    19.690964            0   0.35665396 
WARNING: Bond/angle/dihedral extent > half of periodic box length (src/domain.cpp:934)
Loop time of 5220.38 on 1 procs for 40000000 steps with 34 atoms

Performance: 662.021 ns/day, 0.036 hours/ns, 7662.284 timesteps/s
99.8% CPU use with 1 MPI tasks x 1 OpenMP threads

MPI task timing breakdown:
Section |  min time  |  avg time  |  max time  |%varavg| %total
---------------------------------------------------------------
Pair    | 3486.8     | 3486.8     | 3486.8     |   0.0 | 66.79
Bond    | 1173.3     | 1173.3     | 1173.3     |   0.0 | 22.47
Neigh   | 156.5      | 156.5      | 156.5      |   0.0 |  3.00
Comm    | 290.57     | 290.57     | 290.57     |   0.0 |  5.57
Output  | 2.6408     | 2.6408     | 2.6408     |   0.0 |  0.05
Modify  | 62.578     | 62.578     | 62.578     |   0.0 |  1.20
Other   |            | 47.98      |            |       |  0.92

Nlocal:        34.0000 ave          34 max          34 min
Histogram: 1 0 0 0 0 0 0 0 0 0
Nghost:        2684.00 ave        2684 max        2684 min
Histogram: 1 0 0 0 0 0 0 0 0 0
Neighs:        10430.0 ave       10430 max       10430 min
Histogram: 1 0 0 0 0 0 0 0 0 0

Total # of neighbors = 10430
Ave neighs/atom = 306.76471
Ave special neighs/atom = 10.058824
Neighbor list builds = 440062
Dangerous builds = 0
# run 4000

undump 5
unfix 4
unfix 1
Total wall time: 1:38:11
