
                                 *****************
                                 * O   R   C   A *
                                 *****************

           --- An Ab Initio, DFT and Semiempirical electronic structure package ---

                  #######################################################
                  #                        -***-                        #
                  #          Department of theory and spectroscopy      #
                  #               Directorship: Frank Neese             #
                  #        Max Planck Institute fuer Kohlenforschung    #
                  #                Kaiser Wilhelm Platz 1               #
                  #                 D-45470 Muelheim/Ruhr               #
                  #                      Germany                        #
                  #                                                     #
                  #                  All rights reserved                #
                  #                        -***-                        #
                  #######################################################


                         Program Version 4.2.1 -  RELEASE  -


 With contributions from (in alphabetic order):
   Daniel Aravena         : Magnetic Suceptibility
   Michael Atanasov       : Ab Initio Ligand Field Theory (pilot matlab implementation)
   Alexander A. Auer      : GIAO ZORA, VPT2
   Ute Becker             : Parallelization
   Giovanni Bistoni       : ED, misc. LED, open-shell LED, HFLD
   Martin Brehm           : Molecular dynamics
   Dmytro Bykov           : SCF Hessian
   Vijay G. Chilkuri      : MRCI spin determinant printing, contributions to CSF-ICE
   Dipayan Datta          : RHF DLPNO-CCSD density
   Achintya Kumar Dutta   : EOM-CC, STEOM-CC
   Dmitry Ganyushin       : Spin-Orbit,Spin-Spin,Magnetic field MRCI
   Miquel Garcia          : C-PCM Hessian, Gaussian charge scheme
   Yang Guo               : DLPNO-NEVPT2, CIM, IAO-localization
   Andreas Hansen         : Spin unrestricted coupled pair/coupled cluster methods
   Benjamin Helmich-Paris : CASSCF linear response (MC-RPA)
   Lee Huntington         : MR-EOM, pCC
   Robert Izsak           : Overlap fitted RIJCOSX, COSX-SCS-MP3, EOM
   Christian Kollmar      : KDIIS, OOCD, Brueckner-CCSD(T), CCSD density
   Simone Kossmann        : Meta GGA functionals, TD-DFT gradient, OOMP2, MP2 Hessian
   Martin Krupicka        : AUTO-CI
   Lucas Lang             : DCDCAS
   Dagmar Lenk            : GEPOL surface, SMD
   Dimitrios Liakos       : Extrapolation schemes; Compound Job, initial MDCI parallelization
   Dimitrios Manganas     : Further ROCIS development; embedding schemes
   Dimitrios Pantazis     : SARC Basis sets
   Taras Petrenko         : DFT Hessian,TD-DFT gradient, ASA, ECA, R-Raman, ABS, FL, XAS/XES, NRVS
   Peter Pinski           : DLPNO-MP2, DLPNO-MP2 Gradient
   Christoph Reimann      : Effective Core Potentials
   Marius Retegan         : Local ZFS, SOC
   Christoph Riplinger    : Optimizer, TS searches, QM/MM, DLPNO-CCSD(T), (RO)-DLPNO pert. Triples
   Tobias Risthaus        : Range-separated hybrids, TD-DFT gradient, RPA, STAB
   Michael Roemelt        : Original ROCIS implementation
   Masaaki Saitow         : Open-shell DLPNO-CCSD energy and density
   Barbara Sandhoefer     : DKH picture change effects
   Avijit Sen             : IP-ROCIS
   Kantharuban Sivalingam : CASSCF convergence, NEVPT2, FIC-MRCI
   Bernardo de Souza      : ESD, SOC TD-DFT
   Georgi Stoychev        : AutoAux, RI-MP2 NMR
   Willem Van den Heuvel  : Paramagnetic NMR
   Boris Wezisla          : Elementary symmetry handling
   Frank Wennmohs         : Technical directorship


 We gratefully acknowledge several colleagues who have allowed us to
 interface, adapt or use parts of their codes:
   Stefan Grimme, W. Hujo, H. Kruse,             : VdW corrections, initial TS optimization,
                  C. Bannwarth                     DFT functionals, gCP, sTDA/sTD-DF
   Ed Valeev, F. Pavosevic, A. Kumar             : LibInt (2-el integral package), F12 methods
   Garnet Chan, S. Sharma, J. Yang, R. Olivares  : DMRG
   Ulf Ekstrom                                   : XCFun DFT Library
   Mihaly Kallay                                 : mrcc  (arbitrary order and MRCC methods)
   Andreas Klamt, Michael Diedenhofen            : otool_cosmo (COSMO solvation model)
   Jiri Pittner, Ondrej Demel                    : Mk-CCSD
   Frank Weinhold                                : gennbo (NPA and NBO analysis)
   Christopher J. Cramer and Donald G. Truhlar   : smd solvation model
   Lars Goerigk                                  : TD-DFT with DH, B97 family of functionals
   V. Asgeirsson, H. Jonsson                     : NEB implementation
   FAccTs GmbH                                   : IRC, NEB, NEB-TS, Multilevel, MM, QM/MM, CI optimization
   S Lehtola, MJT Oliveira, MAL Marques          : LibXC Library


 Your calculation uses the libint2 library for the computation of 2-el integrals
 For citations please refer to: http://libint.valeyev.net

 Your ORCA version has been built with support for libXC version: 4.2.3
 For citations please refer to: https://tddft.org/programs/libxc/

 This ORCA versions uses:
   CBLAS   interface :  Fast vector & matrix operations
   LAPACKE interface :  Fast linear algebra routines
   SCALAPACK package :  Parallel linear algebra routines


Your calculation utilizes the atom-pairwise dispersion correction
with the zero-damping scheme (D30)
Cite in your paper:
S.Grimme, J.Antony, S.Ehrlich and H.Krieg, J.Chem.Phys., 132, (2010), 154104 
   

XCFun DFT library Copyright 2009-2010 Ulf Ekstrom and contributors.
See http://admol.org/xcfun for more information. This is free soft-
ware; see the source code for copying conditions. There is ABSOLUTELY
NO WARRANTY; not even for MERCHANTABILITY or FITNESS FOR A PARTICULAR
PURPOSE. For details see the documentation. Scientific users of this 
library should cite U. Ekstrom, L. Visscher, R. Bast, A. J. Thorvald-
sen and K. Ruud; J.Chem.Theor.Comp. 2010, DOI: 10.1021/ct100117s
XCFun Version 0.99 
----- Orbital basis set information -----
Your calculation utilizes the basis: def2-SVP
   F. Weigend and R. Ahlrichs, Phys. Chem. Chem. Phys. 7, 3297 (2005).

================================================================================
                                        WARNINGS
                       Please study these warnings very carefully!
================================================================================


INFO   : the flag for use of LIBINT has been found!

================================================================================
                                       INPUT FILE
================================================================================
NAME = config_8745.inp
|  1> ! wB97X-D3 SP def2-SVP
|  2> %pal
|  3> nprocs 24
|  4> end
|  5> 
|  6> * xyz 0 1
|  7> S 	 -23.255 	 -33.8362 	 -92.1268 	 
|  8> C 	 -21.7825 	 -34.69 	 -91.7001 	 
|  9> C 	 -20.6751 	 -34.1078 	 -92.2855 	 
| 10> C 	 -21.0118 	 -32.9091 	 -93.0565 	 
| 11> C 	 -22.4169 	 -32.6177 	 -93.0085 	 
| 12> H 	 -20.354 	 -32.2841 	 -93.5438 	 
| 13> C 	 -19.282 	 -34.6378 	 -92.2143 	 
| 14> H 	 -19.2418 	 -35.4446 	 -91.4658 	 
| 15> H 	 -18.6939 	 -33.713 	 -91.9369 	 
| 16> C 	 -18.9606 	 -35.2782 	 -93.5462 	 
| 17> H 	 -19.5228 	 -36.1431 	 -93.6773 	 
| 18> H 	 -19.1924 	 -34.5961 	 -94.3426 	 
| 19> C 	 -17.4693 	 -35.6906 	 -93.5725 	 
| 20> H 	 -17.1979 	 -36.0834 	 -94.5998 	 
| 21> H 	 -16.7686 	 -34.838 	 -93.3337 	 
| 22> H 	 -17.3816 	 -36.5191 	 -92.9075 	 
| 23> S 	 -24.4838 	 -31.9394 	 -94.5828 	 
| 24> C 	 -24.7502 	 -30.2793 	 -95.0793 	 
| 25> C 	 -23.7583 	 -29.5277 	 -94.5185 	 
| 26> C 	 -22.7531 	 -30.206 	 -93.7548 	 
| 27> C 	 -23.0511 	 -31.5341 	 -93.7282 	 
| 28> H 	 -23.807 	 -28.4722 	 -94.6957 	 
| 29> C 	 -21.6248 	 -29.4101 	 -93.0499 	 
| 30> H 	 -20.7733 	 -30.09 	 -92.8641 	 
| 31> H 	 -21.9524 	 -29.1018 	 -92.1252 	 
| 32> C 	 -21.0919 	 -28.2039 	 -93.837 	 
| 33> H 	 -20.3464 	 -27.6721 	 -93.2688 	 
| 34> H 	 -21.9047 	 -27.4643 	 -94.0347 	 
| 35> C 	 -20.311 	 -28.5333 	 -95.1354 	 
| 36> H 	 -20.8803 	 -29.1024 	 -95.9071 	 
| 37> H 	 -19.4855 	 -29.1919 	 -94.8741 	 
| 38> H 	 -19.8013 	 -27.7402 	 -95.7052 	 
| 39> H 	 -21.8017 	 -35.6166 	 -91.164 	 
| 40> H 	 -25.5361 	 -29.9451 	 -95.7624 	 
| 41> *
| 42> 
| 43>                          ****END OF INPUT****
================================================================================

                       ****************************
                       * Single Point Calculation *
                       ****************************

---------------------------------
CARTESIAN COORDINATES (ANGSTROEM)
---------------------------------
  S    -23.255000  -33.836200  -92.126800
  C    -21.782500  -34.690000  -91.700100
  C    -20.675100  -34.107800  -92.285500
  C    -21.011800  -32.909100  -93.056500
  C    -22.416900  -32.617700  -93.008500
  H    -20.354000  -32.284100  -93.543800
  C    -19.282000  -34.637800  -92.214300
  H    -19.241800  -35.444600  -91.465800
  H    -18.693900  -33.713000  -91.936900
  C    -18.960600  -35.278200  -93.546200
  H    -19.522800  -36.143100  -93.677300
  H    -19.192400  -34.596100  -94.342600
  C    -17.469300  -35.690600  -93.572500
  H    -17.197900  -36.083400  -94.599800
  H    -16.768600  -34.838000  -93.333700
  H    -17.381600  -36.519100  -92.907500
  S    -24.483800  -31.939400  -94.582800
  C    -24.750200  -30.279300  -95.079300
  C    -23.758300  -29.527700  -94.518500
  C    -22.753100  -30.206000  -93.754800
  C    -23.051100  -31.534100  -93.728200
  H    -23.807000  -28.472200  -94.695700
  C    -21.624800  -29.410100  -93.049900
  H    -20.773300  -30.090000  -92.864100
  H    -21.952400  -29.101800  -92.125200
  C    -21.091900  -28.203900  -93.837000
  H    -20.346400  -27.672100  -93.268800
  H    -21.904700  -27.464300  -94.034700
  C    -20.311000  -28.533300  -95.135400
  H    -20.880300  -29.102400  -95.907100
  H    -19.485500  -29.191900  -94.874100
  H    -19.801300  -27.740200  -95.705200
  H    -21.801700  -35.616600  -91.164000
  H    -25.536100  -29.945100  -95.762400

----------------------------
CARTESIAN COORDINATES (A.U.)
----------------------------
  NO LB      ZA    FRAG     MASS         X           Y           Z
   0 S    16.0000    0    32.060  -43.945581  -63.941151  -174.094422
   1 C     6.0000    0    12.011  -41.162960  -65.554600  -173.288075
   2 C     6.0000    0    12.011  -39.070277  -64.454401  -174.394321
   3 C     6.0000    0    12.011  -39.706548  -62.189186  -175.851300
   4 C     6.0000    0    12.011  -42.361802  -61.638520  -175.760593
   5 H     1.0000    0     1.008  -38.463486  -61.008107  -176.772164
   6 C     6.0000    0    12.011  -36.437699  -65.455956  -174.259773
   7 H     1.0000    0     1.008  -36.361732  -66.980587  -172.845313
   8 H     1.0000    0     1.008  -35.326351  -63.708337  -173.735563
   9 C     6.0000    0    12.011  -35.830341  -66.666136  -176.776699
  10 H     1.0000    0     1.008  -36.892745  -68.300561  -177.024442
  11 H     1.0000    0     1.008  -36.268380  -65.377154  -178.281677
  12 C     6.0000    0    12.011  -33.012193  -67.445460  -176.826399
  13 H     1.0000    0     1.008  -32.499321  -68.187744  -178.767714
  14 H     1.0000    0     1.008  -31.688062  -65.834279  -176.375132
  15 H     1.0000    0     1.008  -32.846464  -69.011098  -175.569731
  16 S    16.0000    0    32.060  -46.267677  -60.356719  -178.735589
  17 C     6.0000    0    12.011  -46.771100  -57.219585  -179.673838
  18 C     6.0000    0    12.011  -44.896680  -55.799266  -178.614080
  19 C     6.0000    0    12.011  -42.997128  -57.081068  -177.170896
  20 C     6.0000    0    12.011  -43.560266  -59.590813  -177.120629
  21 H     1.0000    0     1.008  -44.988710  -53.804660  -178.948939
  22 C     6.0000    0    12.011  -40.864950  -55.577035  -175.838828
  23 H     1.0000    0     1.008  -39.255848  -56.861859  -175.487717
  24 H     1.0000    0     1.008  -41.484024  -54.994432  -174.091398
  25 C     6.0000    0    12.011  -39.857915  -53.297647  -177.326231
  26 H     1.0000    0     1.008  -38.449124  -52.292691  -176.252489
  27 H     1.0000    0     1.008  -41.393884  -51.900005  -177.699830
  28 C     6.0000    0    12.011  -38.382228  -53.920123  -179.779852
  29 H     1.0000    0     1.008  -39.458049  -54.995566  -181.238153
  30 H     1.0000    0     1.008  -36.822259  -55.164696  -179.286066
  31 H     1.0000    0     1.008  -37.419034  -52.421381  -180.856618
  32 H     1.0000    0     1.008  -41.199242  -67.305620  -172.274993
  33 H     1.0000    0     1.008  -48.256236  -56.588038  -180.964710

--------------------------------
INTERNAL COORDINATES (ANGSTROEM)
--------------------------------
 S      0   0   0     0.000000000000     0.00000000     0.00000000
 C      1   0   0     1.754794455200     0.00000000     0.00000000
 C      2   1   0     1.381298215448   111.38352769     0.00000000
 C      3   2   1     1.464475872113   112.56878505     2.34914153
 C      4   3   2     1.435800811394   111.93261881     0.55484162
 H      4   3   2     1.029945207280   126.79475016   176.99544179
 C      3   2   1     1.492212133043   125.34763390   184.77610658
 H      7   3   2     1.101269508340   109.06951029   348.94229669
 H      7   3   2     1.130516435086   101.93570627   227.59073510
 C      7   3   2     1.512404618480   107.86457037   103.98748770
 H     10   7   3     1.039859634758   110.38475280   291.16960188
 H     10   7   3     1.073892271133   109.77163265    50.78567216
 C     10   7   3     1.547495117924   109.42676019   173.31235514
 H     13  10   7     1.132826151711   109.79740899   185.18373712
 H     13  10   7     1.129129173301   113.15426862   305.61018953
 H     13  10   7     1.065987119997   106.01000209    71.03947135
 S      5   4   3     2.685253617445   141.71425677   226.00684820
 C     17   5   4     1.753115289991   121.48023230   278.54022632
 C     18  17   5     1.365014582340   107.13520104   359.77325573
 C     19  18  17     1.433093025592   117.90562064     2.63580696
 C     20  19  18     1.361382080828   108.57922610   358.32985462
 H     19  18  17     1.071378448542   116.19805737   182.56461444
 C     20  19  18     1.550290846906   120.65087005   182.09356117
 H     23  20  19     1.105367766854   108.74129454   201.64479934
 H     23  20  19     1.028319376458   109.32520427    86.12481211
 C     23  20  19     1.535717180994   115.00758922   322.31590981
 H     26  23  20     1.077697884381   110.94034337   177.26913489
 H     26  23  20     1.116573907093   111.00234758    60.09914241
 C     26  23  20     1.550532724582   115.91836166   292.20536407
 H     29  26  23     1.115122499997   115.51843758    59.52840139
 H     29  26  23     1.087879542964   108.03772724   303.38835488
 H     29  26  23     1.101577841099   120.87892168   186.59057444
 H      2   1   3     1.070681750101   121.85579448   187.69744729
 H     18  17   5     1.093596845277   125.13388589   176.35313028

---------------------------
INTERNAL COORDINATES (A.U.)
---------------------------
 S      0   0   0     0.000000000000     0.00000000     0.00000000
 C      1   0   0     3.316080941651     0.00000000     0.00000000
 C      2   1   0     2.610275336471   111.38352769     0.00000000
 C      3   2   1     2.767458328028   112.56878505     2.34914153
 C      4   3   2     2.713270316397   111.93261881     0.55484162
 H      4   3   2     1.946314374705   126.79475016   176.99544179
 C      3   2   1     2.819872265165   125.34763390   184.77610658
 H      7   3   2     2.081097770401   109.06951029   348.94229669
 H      7   3   2     2.136366452210   101.93570627   227.59073510
 C      7   3   2     2.858030532605   107.86457037   103.98748770
 H     10   7   3     1.965049927413   110.38475280   291.16960188
 H     10   7   3     2.029362289777   109.77163265    50.78567216
 C     10   7   3     2.924341966457   109.42676019   173.31235514
 H     13  10   7     2.140731184077   109.79740899   185.18373712
 H     13  10   7     2.133744907360   113.15426862   305.61018953
 H     13  10   7     2.014423719082   106.01000209    71.03947135
 S      5   4   3     5.074393937092   141.71425677   226.00684820
 C     17   5   4     3.312907779273   121.48023230   278.54022632
 C     18  17   5     2.579503729431   107.13520104   359.77325573
 C     19  18  17     2.708153342801   117.90562064     2.63580696
 C     20  19  18     2.572639296393   108.57922610   358.32985462
 H     19  18  17     2.024611853530   116.19805737   182.56461444
 C     20  19  18     2.929625128577   120.65087005   182.09356117
 H     23  20  19     2.088842356618   108.74129454   201.64479934
 H     23  20  19     1.943241999711   109.32520427    86.12481211
 C     23  20  19     2.902084891236   115.00758922   322.31590981
 H     26  23  20     2.036553856587   110.94034337   177.26913489
 H     26  23  20     2.110018892687   111.00234758    60.09914241
 C     26  23  20     2.930082211143   115.91836166   292.20536407
 H     29  26  23     2.107276130768   115.51843758    59.52840139
 H     29  26  23     2.055794402898   108.03772724   303.38835488
 H     29  26  23     2.081680434873   120.87892168   186.59057444
 H      2   1   3     2.023295284279   121.85579448   187.69744729
 H     18  17   5     2.066598538494   125.13388589   176.35313028

---------------------
BASIS SET INFORMATION
---------------------
There are 3 groups of distinct atoms

 Group   1 Type S   : 10s7p1d contracted to 4s3p1d pattern {5311/511/1}
 Group   2 Type C   : 7s4p1d contracted to 3s2p1d pattern {511/31/1}
 Group   3 Type H   : 4s1p contracted to 2s1p pattern {31/1}

Atom   0S    basis set group =>   1
Atom   1C    basis set group =>   2
Atom   2C    basis set group =>   2
Atom   3C    basis set group =>   2
Atom   4C    basis set group =>   2
Atom   5H    basis set group =>   3
Atom   6C    basis set group =>   2
Atom   7H    basis set group =>   3
Atom   8H    basis set group =>   3
Atom   9C    basis set group =>   2
Atom  10H    basis set group =>   3
Atom  11H    basis set group =>   3
Atom  12C    basis set group =>   2
Atom  13H    basis set group =>   3
Atom  14H    basis set group =>   3
Atom  15H    basis set group =>   3
Atom  16S    basis set group =>   1
Atom  17C    basis set group =>   2
Atom  18C    basis set group =>   2
Atom  19C    basis set group =>   2
Atom  20C    basis set group =>   2
Atom  21H    basis set group =>   3
Atom  22C    basis set group =>   2
Atom  23H    basis set group =>   3
Atom  24H    basis set group =>   3
Atom  25C    basis set group =>   2
Atom  26H    basis set group =>   3
Atom  27H    basis set group =>   3
Atom  28C    basis set group =>   2
Atom  29H    basis set group =>   3
Atom  30H    basis set group =>   3
Atom  31H    basis set group =>   3
Atom  32H    basis set group =>   3
Atom  33H    basis set group =>   3


           ************************************************************
           *        Program running with 24 parallel MPI-processes    *
           *              working on a common directory               *
           ************************************************************
------------------------------------------------------------------------------
                           ORCA GTO INTEGRAL CALCULATION
------------------------------------------------------------------------------

                         BASIS SET STATISTICS AND STARTUP INFO

 # of primitive gaussian shells          ...  294
 # of primitive gaussian functions       ...  534
 # of contracted shells                  ...  154
 # of contracted basis functions         ...  322
 Highest angular momentum                ...    2
 Maximum contraction depth               ...    5
 Integral package used                   ... LIBINT
 Integral threshhold            Thresh   ...  1.000e-10
 Primitive cut-off              TCut     ...  1.000e-11


------------------------------ INTEGRAL EVALUATION ----------------------------


 * One electron integrals 
 Pre-screening matrix                    ... done
 Shell pair data                         ... done (   0.003 sec)



           ************************************************************
           *        Program running with 24 parallel MPI-processes    *
           *              working on a common directory               *
           ************************************************************
-------------------------------------------------------------------------------
                                 ORCA SCF
-------------------------------------------------------------------------------

------------
SCF SETTINGS
------------
Hamiltonian:
 Density Functional     Method          .... DFT(GTOs)
 Exchange Functional    Exchange        .... WB97X-D3
 Correlation Functional Correlation     .... WB97X-D3
 Gradients option       PostSCFGGA      .... off
 Hybrid DFT is turned on
   Fraction HF Exchange ScalHFX         ....  0.195728
   Scaling of DF-GGA-X  ScalDFX         ....  0.000000
   Scaling of DF-GGA-C  ScalDFC         ....  1.000000
   Scaling of DF-LDA-C  ScalLDAC        ....  1.000000
   Perturbative correction              ....  0.000000
   Density functional embedding theory  .... OFF
 Long-range corrected/Screened/Range-Separated Hybrid DFT is turned on
   Amount of maximum screened exact exchange              ....  0.804272
   Range separation parameter mu (erf(mu*r12)/r12)        ....  0.250000


General Settings:
 Integral files         IntName         .... config_8745
 Hartree-Fock type      HFTyp           .... RHF
 Total Charge           Charge          ....    0
 Multiplicity           Mult            ....    1
 Number of Electrons    NEL             ....  134
 Basis Dimension        Dim             ....  322
 Nuclear Repulsion      ENuc            ....   1280.7975498203 Eh

Convergence Acceleration:
 DIIS                   CNVDIIS         .... on
   Start iteration      DIISMaxIt       ....    12
   Startup error        DIISStart       ....  0.200000
   # of expansion vecs  DIISMaxEq       ....     5
   Bias factor          DIISBfac        ....   1.050
   Max. coefficient     DIISMaxC        ....  10.000
 Newton-Raphson         CNVNR           .... off
 SOSCF                  CNVSOSCF        .... on
   Start iteration      SOSCFMaxIt      ....   150
   Startup grad/error   SOSCFStart      ....  0.003300
 Level Shifting         CNVShift        .... on
   Level shift para.    LevelShift      ....    0.2500
   Turn off err/grad.   ShiftErr        ....    0.0010
 Zerner damping         CNVZerner       .... off
 Static damping         CNVDamp         .... on
   Fraction old density DampFac         ....    0.7000
   Max. Damping (<1)    DampMax         ....    0.9800
   Min. Damping (>=0)   DampMin         ....    0.0000
   Turn off err/grad.   DampErr         ....    0.1000
 Fernandez-Rico         CNVRico         .... off

SCF Procedure:
 Maximum # iterations   MaxIter         ....   125
 SCF integral mode      SCFMode         .... Direct
   Integral package                     .... LIBINT
 Reset frequency        DirectResetFreq ....    20
 Integral Threshold     Thresh          ....  1.000e-10 Eh
 Primitive CutOff       TCut            ....  1.000e-11 Eh

Convergence Tolerance:
 Convergence Check Mode ConvCheckMode   .... Total+1el-Energy
 Convergence forced     ConvForced      .... 0
 Energy Change          TolE            ....  1.000e-06 Eh
 1-El. energy change                    ....  1.000e-03 Eh
 Orbital Gradient       TolG            ....  5.000e-05
 Orbital Rotation angle TolX            ....  5.000e-05
 DIIS Error             TolErr          ....  1.000e-06


Diagonalization of the overlap matrix:
Smallest eigenvalue                        ... 6.555e-04
Time for diagonalization                   ...    0.014 sec
Threshold for overlap eigenvalues          ... 1.000e-08
Number of eigenvalues below threshold      ... 0
Time for construction of square roots      ...    0.026 sec
Total time needed                          ...    0.040 sec

-------------------
DFT GRID GENERATION
-------------------

General Integration Accuracy     IntAcc      ...  4.340
Radial Grid Type                 RadialGrid  ... Gauss-Chebyshev
Angular Grid (max. acc.)         AngularGrid ... Lebedev-110
Angular grid pruning method      GridPruning ... 3 (G Style)
Weight generation scheme         WeightScheme... Becke
Basis function cutoff            BFCut       ...    1.0000e-10
Integration weight cutoff        WCut        ...    1.0000e-14
Grids for H and He will be reduced by one unit

# of grid points (after initial pruning)     ...  41088 (   0.0 sec)
# of grid points (after weights+screening)   ...  37020 (   0.0 sec)
nearest neighbour list constructed           ...    0.0 sec
Grid point re-assignment to atoms done       ...    0.0 sec
Grid point division into batches done        ...    0.0 sec
Reduced shell lists constructed in    0.1 sec

Total number of grid points                  ...    37020
Total number of batches                      ...      595
Average number of points per batch           ...       62
Average number of grid points per atom       ...     1089
Average number of shells per batch           ...    69.96 (45.43%)
Average number of basis functions per batch  ...   138.73 (43.08%)
Average number of large shells per batch     ...    43.96 (62.84%)
Average number of large basis fcns per batch ...    91.27 (65.79%)
Maximum spatial batch extension              ...  15.72, 16.74, 17.50 au
Average spatial batch extension              ...   0.17,  0.17,  0.21 au

Time for grid setup =    0.152 sec

------------------------------
INITIAL GUESS: MODEL POTENTIAL
------------------------------
Loading Hartree-Fock densities                     ... done
Calculating cut-offs                               ... done
Setting up the integral package                    ... done
Initializing the effective Hamiltonian             ... done
Starting the Coulomb interaction                   ... done (   0.0 sec)
Reading the grid                                   ... done
Mapping shells                                     ... done
Starting the XC term evaluation                    ... done (   0.0 sec)
  promolecular density results
     # of electrons  =    133.995982149
     EX              =   -126.735372370
     EC              =     -4.622524383
     EX+EC           =   -131.357896753
Transforming the Hamiltonian                       ... done (   0.0 sec)
Diagonalizing the Hamiltonian                      ... done (   0.0 sec)
Back transforming the eigenvectors                 ... done (   0.0 sec)
Now organizing SCF variables                       ... done
                      ------------------
                      INITIAL GUESS DONE (   0.3 sec)
                      ------------------
--------------
SCF ITERATIONS
--------------
ITER       Energy         Delta-E        Max-DP      RMS-DP      [F,P]     Damp
               ***  Starting incremental Fock matrix formation  ***
  0  -1339.4367117741   0.000000000000 0.06317368  0.00156109  0.1561693 0.7000
  1  -1339.6203339481  -0.183622173984 0.04257047  0.00113761  0.0944410 0.7000
                               ***Turning on DIIS***
  2  -1339.7093536408  -0.089019692737 0.07678171  0.00215370  0.0489323 0.0000
  3  -1339.8443196902  -0.134966049396 0.04159312  0.00097730  0.0384108 0.0000
  4  -1339.8730087278  -0.028689037569 0.00759125  0.00019812  0.0071397 0.0000
                      *** Initiating the SOSCF procedure ***
                           *** Shutting down DIIS ***
                      *** Re-Reading the Fockian *** 
                      *** Removing any level shift *** 
ITER      Energy       Delta-E        Grad      Rot      Max-DP    RMS-DP
  5  -1339.87388743  -0.0008787053  0.001303  0.001303  0.002915  0.000098
               *** Restarting incremental Fock matrix formation ***
  6  -1339.87406576  -0.0001783247  0.001086  0.003044  0.002384  0.000062
  7  -1339.87412555  -0.0000597892  0.000644  0.003896  0.002332  0.000059
  8  -1339.87414143  -0.0000158875  0.000360  0.000735  0.000767  0.000018
  9  -1339.87414519  -0.0000037585  0.000140  0.000334  0.000274  0.000008
 10  -1339.87414554  -0.0000003498  0.000066  0.000172  0.000138  0.000003
                 **** Energy Check signals convergence ****
              ***Rediagonalizing the Fockian in SOSCF/NRSCF***

               *****************************************************
               *                     SUCCESS                       *
               *           SCF CONVERGED AFTER  11 CYCLES          *
               *****************************************************

Setting up the final grid:

General Integration Accuracy     IntAcc      ...  4.670
Radial Grid Type                 RadialGrid  ... Gauss-Chebyshev
Angular Grid (max. acc.)         AngularGrid ... Lebedev-302
Angular grid pruning method      GridPruning ... 3 (G Style)
Weight generation scheme         WeightScheme... Becke
Basis function cutoff            BFCut       ...    1.0000e-10
Integration weight cutoff        WCut        ...    1.0000e-14
Grids for H and He will be reduced by one unit

# of grid points (after initial pruning)     ... 161752 (   0.0 sec)
# of grid points (after weights+screening)   ... 142908 (   0.1 sec)
nearest neighbour list constructed           ...    0.0 sec
Grid point re-assignment to atoms done       ...    0.0 sec
Grid point division into batches done        ...    0.5 sec
Reduced shell lists constructed in    0.5 sec

Total number of grid points                  ...   142908
Total number of batches                      ...     2251
Average number of points per batch           ...       63
Average number of grid points per atom       ...     4203
Average number of shells per batch           ...    62.45 (40.55%)
Average number of basis functions per batch  ...   123.34 (38.30%)
Average number of large shells per batch     ...    38.20 (61.17%)
Average number of large basis fcns per batch ...    79.02 (64.07%)
Maximum spatial batch extension              ...  13.02, 15.03, 17.06 au
Average spatial batch extension              ...   0.12,  0.11,  0.12 au

Final grid set up in    0.9 sec
Final integration                            ... done (   0.3 sec)
Change in XC energy                          ...     0.005612180
Integrated number of electrons               ...   133.999912736
Previous integrated no of electrons          ...   134.001851810

----------------
TOTAL SCF ENERGY
----------------

Total Energy       :        -1339.86853360 Eh          -36459.67637 eV

Components:
Nuclear Repulsion  :         1280.79754982 Eh           34852.27319 eV
Electronic Energy  :        -2620.66608342 Eh          -71311.94956 eV
One Electron Energy:        -4378.18453935 Eh         -119136.45810 eV
Two Electron Energy:         1757.51845593 Eh           47824.50854 eV

Virial components:
Potential Energy   :        -2671.48134614 Eh          -72694.70316 eV
Kinetic Energy     :         1331.61281254 Eh           36235.02678 eV
Virial Ratio       :            2.00619979


DFT components:
N(Alpha)           :       66.999956368150 electrons
N(Beta)            :       66.999956368150 electrons
N(Total)           :      133.999912736300 electrons
E(XC)              :      -94.279318325989 Eh       
DFET-embed. en.    :        0.000000000000 Eh       

---------------
SCF CONVERGENCE
---------------

  Last Energy change         ...   -2.3464e-07  Tolerance :   1.0000e-06
  Last MAX-Density change    ...    3.0638e-05  Tolerance :   1.0000e-05
  Last RMS-Density change    ...    6.4385e-07  Tolerance :   1.0000e-06
  Last Orbital Gradient      ...    9.0288e-06  Tolerance :   5.0000e-05
  Last Orbital Rotation      ...    1.8267e-05  Tolerance :   5.0000e-05

             **** THE GBW FILE WAS UPDATED (config_8745.gbw) ****
             **** DENSITY FILE WAS UPDATED (config_8745.scfp) ****
             **** ENERGY FILE WAS UPDATED (config_8745.en.tmp) ****
             **** THE GBW FILE WAS UPDATED (config_8745.gbw) ****
             **** DENSITY FILE WAS UPDATED (config_8745.scfp) ****
----------------
ORBITAL ENERGIES
----------------

  NO   OCC          E(Eh)            E(eV) 
   0   2.0000     -88.965968     -2420.8871 
   1   2.0000     -88.961862     -2420.7753 
   2   2.0000     -10.330822      -281.1160 
   3   2.0000     -10.322871      -280.8996 
   4   2.0000     -10.316137      -280.7164 
   5   2.0000     -10.309877      -280.5460 
   6   2.0000     -10.303278      -280.3665 
   7   2.0000     -10.301375      -280.3147 
   8   2.0000     -10.294890      -280.1382 
   9   2.0000     -10.294069      -280.1159 
  10   2.0000     -10.293673      -280.1051 
  11   2.0000     -10.293623      -280.1037 
  12   2.0000     -10.289720      -279.9975 
  13   2.0000     -10.282675      -279.8058 
  14   2.0000     -10.280407      -279.7441 
  15   2.0000     -10.278658      -279.6965 
  16   2.0000      -8.080841      -219.8909 
  17   2.0000      -8.077543      -219.8011 
  18   2.0000      -6.039371      -164.3396 
  19   2.0000      -6.036044      -164.2491 
  20   2.0000      -6.035167      -164.2252 
  21   2.0000      -6.031865      -164.1354 
  22   2.0000      -6.031752      -164.1323 
  23   2.0000      -6.028292      -164.0382 
  24   2.0000      -1.011038       -27.5118 
  25   2.0000      -0.983575       -26.7644 
  26   2.0000      -0.919939       -25.0328 
  27   2.0000      -0.908398       -24.7188 
  28   2.0000      -0.871315       -23.7097 
  29   2.0000      -0.849251       -23.1093 
  30   2.0000      -0.841672       -22.9031 
  31   2.0000      -0.812164       -22.1001 
  32   2.0000      -0.785547       -21.3758 
  33   2.0000      -0.771850       -21.0031 
  34   2.0000      -0.708613       -19.2823 
  35   2.0000      -0.699860       -19.0442 
  36   2.0000      -0.697165       -18.9708 
  37   2.0000      -0.661357       -17.9964 
  38   2.0000      -0.642990       -17.4966 
  39   2.0000      -0.620207       -16.8767 
  40   2.0000      -0.601007       -16.3542 
  41   2.0000      -0.572876       -15.5888 
  42   2.0000      -0.562121       -15.2961 
  43   2.0000      -0.558746       -15.2042 
  44   2.0000      -0.537830       -14.6351 
  45   2.0000      -0.523119       -14.2348 
  46   2.0000      -0.516964       -14.0673 
  47   2.0000      -0.513847       -13.9825 
  48   2.0000      -0.510854       -13.9010 
  49   2.0000      -0.499285       -13.5862 
  50   2.0000      -0.491700       -13.3798 
  51   2.0000      -0.480985       -13.0883 
  52   2.0000      -0.466082       -12.6827 
  53   2.0000      -0.462804       -12.5935 
  54   2.0000      -0.455747       -12.4015 
  55   2.0000      -0.452614       -12.3163 
  56   2.0000      -0.444300       -12.0900 
  57   2.0000      -0.442221       -12.0334 
  58   2.0000      -0.435398       -11.8478 
  59   2.0000      -0.429684       -11.6923 
  60   2.0000      -0.423022       -11.5110 
  61   2.0000      -0.415055       -11.2942 
  62   2.0000      -0.408747       -11.1226 
  63   2.0000      -0.350817        -9.5462 
  64   2.0000      -0.331426        -9.0186 
  65   2.0000      -0.325407        -8.8548 
  66   2.0000      -0.290503        -7.9050 
  67   0.0000       0.031365         0.8535 
  68   0.0000       0.079240         2.1562 
  69   0.0000       0.116247         3.1632 
  70   0.0000       0.120570         3.2809 
  71   0.0000       0.135564         3.6889 
  72   0.0000       0.141091         3.8393 
  73   0.0000       0.149666         4.0726 
  74   0.0000       0.157498         4.2857 
  75   0.0000       0.160867         4.3774 
  76   0.0000       0.169883         4.6227 
  77   0.0000       0.181812         4.9473 
  78   0.0000       0.189826         5.1654 
  79   0.0000       0.193381         5.2622 
  80   0.0000       0.199430         5.4268 
  81   0.0000       0.209730         5.7070 
  82   0.0000       0.212024         5.7695 
  83   0.0000       0.217932         5.9302 
  84   0.0000       0.219399         5.9701 
  85   0.0000       0.227695         6.1959 
  86   0.0000       0.235718         6.4142 
  87   0.0000       0.242404         6.5961 
  88   0.0000       0.250206         6.8085 
  89   0.0000       0.252896         6.8816 
  90   0.0000       0.257447         7.0055 
  91   0.0000       0.261951         7.1280 
  92   0.0000       0.279786         7.6134 
  93   0.0000       0.296684         8.0732 
  94   0.0000       0.306771         8.3477 
  95   0.0000       0.314312         8.5529 
  96   0.0000       0.324960         8.8426 
  97   0.0000       0.327442         8.9101 
  98   0.0000       0.341478         9.2921 
  99   0.0000       0.364447         9.9171 
 100   0.0000       0.383607        10.4385 
 101   0.0000       0.401056        10.9133 
 102   0.0000       0.414459        11.2780 
 103   0.0000       0.419192        11.4068 
 104   0.0000       0.438494        11.9320 
 105   0.0000       0.439897        11.9702 
 106   0.0000       0.461511        12.5584 
 107   0.0000       0.481429        13.1003 
 108   0.0000       0.488549        13.2941 
 109   0.0000       0.499048        13.5798 
 110   0.0000       0.504858        13.7379 
 111   0.0000       0.508366        13.8333 
 112   0.0000       0.513631        13.9766 
 113   0.0000       0.522349        14.2138 
 114   0.0000       0.530617        14.4388 
 115   0.0000       0.541172        14.7260 
 116   0.0000       0.542792        14.7701 
 117   0.0000       0.547368        14.8946 
 118   0.0000       0.559312        15.2197 
 119   0.0000       0.567396        15.4396 
 120   0.0000       0.576885        15.6978 
 121   0.0000       0.595738        16.2109 
 122   0.0000       0.602187        16.3863 
 123   0.0000       0.607787        16.5387 
 124   0.0000       0.620270        16.8784 
 125   0.0000       0.621831        16.9209 
 126   0.0000       0.634416        17.2633 
 127   0.0000       0.650564        17.7027 
 128   0.0000       0.660770        17.9805 
 129   0.0000       0.668077        18.1793 
 130   0.0000       0.677058        18.4237 
 131   0.0000       0.686283        18.6747 
 132   0.0000       0.689798        18.7704 
 133   0.0000       0.708973        19.2921 
 134   0.0000       0.710448        19.3323 
 135   0.0000       0.712400        19.3854 
 136   0.0000       0.719377        19.5752 
 137   0.0000       0.728260        19.8170 
 138   0.0000       0.736286        20.0354 
 139   0.0000       0.738474        20.0949 
 140   0.0000       0.744642        20.2627 
 141   0.0000       0.750341        20.4178 
 142   0.0000       0.753923        20.5153 
 143   0.0000       0.757988        20.6259 
 144   0.0000       0.761251        20.7147 
 145   0.0000       0.764568        20.8049 
 146   0.0000       0.769015        20.9260 
 147   0.0000       0.775524        21.1031 
 148   0.0000       0.777460        21.1558 
 149   0.0000       0.781626        21.2691 
 150   0.0000       0.785602        21.3773 
 151   0.0000       0.792146        21.5554 
 152   0.0000       0.798584        21.7306 
 153   0.0000       0.801480        21.8094 
 154   0.0000       0.805446        21.9173 
 155   0.0000       0.808758        22.0074 
 156   0.0000       0.814180        22.1550 
 157   0.0000       0.824093        22.4247 
 158   0.0000       0.826854        22.4998 
 159   0.0000       0.830228        22.5917 
 160   0.0000       0.835907        22.7462 
 161   0.0000       0.837171        22.7806 
 162   0.0000       0.842021        22.9126 
 163   0.0000       0.845270        23.0010 
 164   0.0000       0.858789        23.3688 
 165   0.0000       0.863836        23.5062 
 166   0.0000       0.870920        23.6989 
 167   0.0000       0.880579        23.9618 
 168   0.0000       0.895251        24.3610 
 169   0.0000       0.905074        24.6283 
 170   0.0000       0.910159        24.7667 
 171   0.0000       0.931693        25.3527 
 172   0.0000       0.937857        25.5204 
 173   0.0000       0.951226        25.8842 
 174   0.0000       0.952489        25.9185 
 175   0.0000       0.965143        26.2629 
 176   0.0000       0.983217        26.7547 
 177   0.0000       1.001858        27.2619 
 178   0.0000       1.028955        27.9993 
 179   0.0000       1.039341        28.2819 
 180   0.0000       1.053226        28.6597 
 181   0.0000       1.082946        29.4685 
 182   0.0000       1.104320        30.0501 
 183   0.0000       1.106206        30.1014 
 184   0.0000       1.128100        30.6972 
 185   0.0000       1.130224        30.7550 
 186   0.0000       1.150014        31.2935 
 187   0.0000       1.156125        31.4598 
 188   0.0000       1.172604        31.9082 
 189   0.0000       1.184703        32.2374 
 190   0.0000       1.217755        33.1368 
 191   0.0000       1.234622        33.5958 
 192   0.0000       1.269912        34.5560 
 193   0.0000       1.286407        35.0049 
 194   0.0000       1.290967        35.1290 
 195   0.0000       1.309648        35.6373 
 196   0.0000       1.314505        35.7695 
 197   0.0000       1.342642        36.5351 
 198   0.0000       1.359274        36.9877 
 199   0.0000       1.370496        37.2931 
 200   0.0000       1.379255        37.5314 
 201   0.0000       1.394725        37.9524 
 202   0.0000       1.406628        38.2763 
 203   0.0000       1.434464        39.0338 
 204   0.0000       1.455640        39.6100 
 205   0.0000       1.468305        39.9546 
 206   0.0000       1.480819        40.2951 
 207   0.0000       1.492530        40.6138 
 208   0.0000       1.519299        41.3422 
 209   0.0000       1.562572        42.5197 
 210   0.0000       1.600899        43.5627 
 211   0.0000       1.617325        44.0097 
 212   0.0000       1.624196        44.1966 
 213   0.0000       1.635224        44.4967 
 214   0.0000       1.652580        44.9690 
 215   0.0000       1.679076        45.6900 
 216   0.0000       1.685379        45.8615 
 217   0.0000       1.715326        46.6764 
 218   0.0000       1.744959        47.4828 
 219   0.0000       1.768633        48.1269 
 220   0.0000       1.781773        48.4845 
 221   0.0000       1.784570        48.5606 
 222   0.0000       1.792962        48.7890 
 223   0.0000       1.801916        49.0326 
 224   0.0000       1.825237        49.6672 
 225   0.0000       1.833821        49.9008 
 226   0.0000       1.837855        50.0106 
 227   0.0000       1.850121        50.3443 
 228   0.0000       1.852190        50.4007 
 229   0.0000       1.856016        50.5048 
 230   0.0000       1.861224        50.6465 
 231   0.0000       1.877142        51.0796 
 232   0.0000       1.887254        51.3548 
 233   0.0000       1.894356        51.5481 
 234   0.0000       1.903069        51.7852 
 235   0.0000       1.909055        51.9480 
 236   0.0000       1.914756        52.1032 
 237   0.0000       1.918347        52.2009 
 238   0.0000       1.928016        52.4640 
 239   0.0000       1.943639        52.8891 
 240   0.0000       1.946024        52.9540 
 241   0.0000       1.957524        53.2669 
 242   0.0000       1.961728        53.3813 
 243   0.0000       1.977344        53.8063 
 244   0.0000       1.982750        53.9534 
 245   0.0000       1.989972        54.1499 
 246   0.0000       2.004738        54.5517 
 247   0.0000       2.016934        54.8836 
 248   0.0000       2.024485        55.0890 
 249   0.0000       2.035396        55.3859 
 250   0.0000       2.041872        55.5622 
 251   0.0000       2.046554        55.6896 
 252   0.0000       2.055988        55.9463 
 253   0.0000       2.076955        56.5168 
 254   0.0000       2.082291        56.6620 
 255   0.0000       2.098873        57.1132 
 256   0.0000       2.116750        57.5997 
 257   0.0000       2.118033        57.6346 
 258   0.0000       2.136145        58.1275 
 259   0.0000       2.147904        58.4474 
 260   0.0000       2.164541        58.9002 
 261   0.0000       2.177600        59.2555 
 262   0.0000       2.200524        59.8793 
 263   0.0000       2.208133        60.0864 
 264   0.0000       2.211834        60.1871 
 265   0.0000       2.244119        61.0656 
 266   0.0000       2.256963        61.4151 
 267   0.0000       2.280410        62.0531 
 268   0.0000       2.284915        62.1757 
 269   0.0000       2.294578        62.4386 
 270   0.0000       2.336002        63.5658 
 271   0.0000       2.346810        63.8600 
 272   0.0000       2.382683        64.8361 
 273   0.0000       2.395381        65.1816 
 274   0.0000       2.419249        65.8311 
 275   0.0000       2.426792        66.0364 
 276   0.0000       2.437104        66.3170 
 277   0.0000       2.456205        66.8367 
 278   0.0000       2.471796        67.2610 
 279   0.0000       2.492055        67.8123 
 280   0.0000       2.506185        68.1968 
 281   0.0000       2.512133        68.3586 
 282   0.0000       2.519083        68.5477 
 283   0.0000       2.522698        68.6461 
 284   0.0000       2.542266        69.1786 
 285   0.0000       2.550802        69.4109 
 286   0.0000       2.558085        69.6090 
 287   0.0000       2.581198        70.2380 
 288   0.0000       2.612523        71.0904 
 289   0.0000       2.625077        71.4320 
 290   0.0000       2.636270        71.7365 
 291   0.0000       2.656390        72.2841 
 292   0.0000       2.677665        72.8630 
 293   0.0000       2.711175        73.7748 
 294   0.0000       2.717756        73.9539 
 295   0.0000       2.746674        74.7408 
 296   0.0000       2.751954        74.8845 
 297   0.0000       2.762761        75.1785 
 298   0.0000       2.796777        76.1042 
 299   0.0000       2.812774        76.5395 
 300   0.0000       2.820062        76.7378 
 301   0.0000       2.855499        77.7021 
 302   0.0000       2.908763        79.1515 
 303   0.0000       2.922733        79.5316 
 304   0.0000       2.956167        80.4414 
 305   0.0000       2.961729        80.5927 
 306   0.0000       2.983510        81.1854 
 307   0.0000       3.004216        81.7489 
 308   0.0000       3.026535        82.3562 
 309   0.0000       3.037997        82.6681 
 310   0.0000       3.081379        83.8486 
 311   0.0000       3.100567        84.3707 
 312   0.0000       3.111843        84.6775 
 313   0.0000       3.125141        85.0394 
 314   0.0000       3.158015        85.9339 
 315   0.0000       3.163933        86.0950 
 316   0.0000       3.187984        86.7495 
 317   0.0000       3.219371        87.6035 
 318   0.0000       3.237786        88.1046 
 319   0.0000       3.259750        88.7023 
 320   0.0000       3.390368        92.2566 
 321   0.0000       3.454959        94.0142 

                    ********************************
                    * MULLIKEN POPULATION ANALYSIS *
                    ********************************

-----------------------
MULLIKEN ATOMIC CHARGES
-----------------------
   0 S :    0.113939
   1 C :   -0.127790
   2 C :   -0.088443
   3 C :    0.045467
   4 C :   -0.148684
   5 H :   -0.017531
   6 C :    0.053593
   7 H :    0.018650
   8 H :    0.047887
   9 C :   -0.051339
  10 H :    0.015270
  11 H :    0.026185
  12 C :   -0.049309
  13 H :    0.037189
  14 H :    0.042945
  15 H :    0.024024
  16 S :    0.100419
  17 C :   -0.100444
  18 C :   -0.038875
  19 C :   -0.032832
  20 C :   -0.166654
  21 H :    0.007305
  22 C :    0.149924
  23 H :    0.012480
  24 H :    0.023785
  25 C :   -0.088470
  26 H :    0.028803
  27 H :    0.038126
  28 C :   -0.077749
  29 H :    0.040696
  30 H :    0.015781
  31 H :    0.038178
  32 H :    0.041767
  33 H :    0.065707
Sum of atomic charges:    0.0000000

--------------------------------
MULLIKEN REDUCED ORBITAL CHARGES
--------------------------------
  0 S s       :     5.838722  s :     5.838722
      pz      :     3.455184  p :     9.936543
      px      :     3.311276
      py      :     3.170083
      dz2     :     0.020153  d :     0.110796
      dxz     :     0.019823
      dyz     :     0.017541
      dx2y2   :     0.020809
      dxy     :     0.032470
  1 C s       :     3.187428  s :     3.187428
      pz      :     1.081457  p :     2.907073
      px      :     0.875943
      py      :     0.949674
      dz2     :     0.003894  d :     0.033289
      dxz     :     0.007829
      dyz     :     0.004021
      dx2y2   :     0.008101
      dxy     :     0.009444
  2 C s       :     3.082475  s :     3.082475
      pz      :     0.984421  p :     2.961655
      px      :     0.977544
      py      :     0.999689
      dz2     :     0.006795  d :     0.044314
      dxz     :     0.009276
      dyz     :     0.005629
      dx2y2   :     0.011054
      dxy     :     0.011560
  3 C s       :     3.185403  s :     3.185403
      pz      :     0.971159  p :     2.738529
      px      :     0.851579
      py      :     0.915791
      dz2     :     0.003652  d :     0.030602
      dxz     :     0.006155
      dyz     :     0.004657
      dx2y2   :     0.007877
      dxy     :     0.008260
  4 C s       :     3.063132  s :     3.063132
      pz      :     1.052854  p :     3.041879
      px      :     0.982076
      py      :     1.006949
      dz2     :     0.006318  d :     0.043672
      dxz     :     0.009330
      dyz     :     0.006975
      dx2y2   :     0.008060
      dxy     :     0.012989
  5 H s       :     0.990899  s :     0.990899
      pz      :     0.008526  p :     0.026632
      px      :     0.008734
      py      :     0.009373
  6 C s       :     2.978540  s :     2.978540
      pz      :     1.004443  p :     2.931448
      px      :     0.968636
      py      :     0.958369
      dz2     :     0.007556  d :     0.036419
      dxz     :     0.004962
      dyz     :     0.009365
      dx2y2   :     0.007038
      dxy     :     0.007499
  7 H s       :     0.958884  s :     0.958884
      pz      :     0.009155  p :     0.022465
      px      :     0.003879
      py      :     0.009431
  8 H s       :     0.930820  s :     0.930820
      pz      :     0.003916  p :     0.021294
      px      :     0.006985
      py      :     0.010392
  9 C s       :     3.024495  s :     3.024495
      pz      :     0.984572  p :     2.988715
      px      :     0.991035
      py      :     1.013107
      dz2     :     0.008662  d :     0.038129
      dxz     :     0.005564
      dyz     :     0.008804
      dx2y2   :     0.005922
      dxy     :     0.009175
 10 H s       :     0.960026  s :     0.960026
      pz      :     0.004833  p :     0.024704
      px      :     0.007664
      py      :     0.012207
 11 H s       :     0.950547  s :     0.950547
      pz      :     0.009872  p :     0.023269
      px      :     0.004463
      py      :     0.008933
 12 C s       :     3.028298  s :     3.028298
      pz      :     1.017464  p :     2.993725
      px      :     0.967451
      py      :     1.008810
      dz2     :     0.004971  d :     0.027286
      dxz     :     0.003373
      dyz     :     0.006839
      dx2y2   :     0.005487
      dxy     :     0.006616
 13 H s       :     0.940949  s :     0.940949
      pz      :     0.012211  p :     0.021862
      px      :     0.004293
      py      :     0.005359
 14 H s       :     0.935643  s :     0.935643
      pz      :     0.004739  p :     0.021412
      px      :     0.007169
      py      :     0.009505
 15 H s       :     0.951004  s :     0.951004
      pz      :     0.009216  p :     0.024972
      px      :     0.004834
      py      :     0.010922
 16 S s       :     5.847308  s :     5.847308
      pz      :     3.452092  p :     9.940714
      px      :     3.222025
      py      :     3.266597
      dz2     :     0.019631  d :     0.111558
      dxz     :     0.018208
      dyz     :     0.018763
      dx2y2   :     0.034359
      dxy     :     0.020597
 17 C s       :     3.164302  s :     3.164302
      pz      :     1.029272  p :     2.901148
      px      :     0.995850
      py      :     0.876025
      dz2     :     0.004358  d :     0.034994
      dxz     :     0.005389
      dyz     :     0.007492
      dx2y2   :     0.010735
      dxy     :     0.007020
 18 C s       :     3.174883  s :     3.174883
      pz      :     0.993057  p :     2.827677
      px      :     0.947263
      py      :     0.887357
      dz2     :     0.006305  d :     0.036315
      dxz     :     0.005506
      dyz     :     0.005756
      dx2y2   :     0.010543
      dxy     :     0.008205
 19 C s       :     3.046100  s :     3.046100
      pz      :     0.998011  p :     2.944154
      px      :     0.975543
      py      :     0.970600
      dz2     :     0.005829  d :     0.042578
      dxz     :     0.005852
      dyz     :     0.009068
      dx2y2   :     0.010651
      dxy     :     0.011178
 20 C s       :     3.050483  s :     3.050483
      pz      :     1.058206  p :     3.069032
      px      :     0.956729
      py      :     1.054097
      dz2     :     0.006245  d :     0.047140
      dxz     :     0.006799
      dyz     :     0.010811
      dx2y2   :     0.013244
      dxy     :     0.010041
 21 H s       :     0.968067  s :     0.968067
      pz      :     0.005060  p :     0.024628
      px      :     0.004240
      py      :     0.015328
 22 C s       :     2.903715  s :     2.903715
      pz      :     1.013425  p :     2.911656
      px      :     0.955202
      py      :     0.943029
      dz2     :     0.007770  d :     0.034704
      dxz     :     0.005745
      dyz     :     0.006897
      dx2y2   :     0.004120
      dxy     :     0.010173
 23 H s       :     0.964662  s :     0.964662
      pz      :     0.004528  p :     0.022858
      px      :     0.010115
      py      :     0.008215
 24 H s       :     0.949894  s :     0.949894
      pz      :     0.013656  p :     0.026321
      px      :     0.006447
      py      :     0.006218
 25 C s       :     3.058301  s :     3.058301
      pz      :     0.995034  p :     2.994405
      px      :     0.997521
      py      :     1.001849
      dz2     :     0.006412  d :     0.035763
      dxz     :     0.008595
      dyz     :     0.007247
      dx2y2   :     0.003342
      dxy     :     0.010167
 26 H s       :     0.947529  s :     0.947529
      pz      :     0.007367  p :     0.023668
      px      :     0.009615
      py      :     0.006687
 27 H s       :     0.940383  s :     0.940383
      pz      :     0.004152  p :     0.021491
      px      :     0.009414
      py      :     0.007926
 28 C s       :     3.036620  s :     3.036620
      pz      :     0.978206  p :     3.013216
      px      :     1.005949
      py      :     1.029061
      dz2     :     0.005007  d :     0.027912
      dxz     :     0.006894
      dyz     :     0.006947
      dx2y2   :     0.001227
      dxy     :     0.007838
 29 H s       :     0.936317  s :     0.936317
      pz      :     0.008352  p :     0.022987
      px      :     0.007136
      py      :     0.007498
 30 H s       :     0.960109  s :     0.960109
      pz      :     0.005100  p :     0.024110
      px      :     0.010193
      py      :     0.008818
 31 H s       :     0.938340  s :     0.938340
      pz      :     0.006786  p :     0.023481
      px      :     0.007066
      py      :     0.009629
 32 H s       :     0.933990  s :     0.933990
      pz      :     0.008321  p :     0.024243
      px      :     0.002863
      py      :     0.013059
 33 H s       :     0.911023  s :     0.911023
      pz      :     0.009190  p :     0.023269
      px      :     0.010234
      py      :     0.003845


                     *******************************
                     * LOEWDIN POPULATION ANALYSIS *
                     *******************************

----------------------
LOEWDIN ATOMIC CHARGES
----------------------
   0 S :    0.416414
   1 C :   -0.206920
   2 C :   -0.055415
   3 C :   -0.058229
   4 C :   -0.198230
   5 H :    0.011429
   6 C :   -0.032987
   7 H :    0.030301
   8 H :    0.040851
   9 C :   -0.030805
  10 H :    0.019858
  11 H :    0.020521
  12 C :   -0.066940
  13 H :    0.029628
  14 H :    0.029824
  15 H :    0.018337
  16 S :    0.412486
  17 C :   -0.188330
  18 C :   -0.068587
  19 C :   -0.058779
  20 C :   -0.204157
  21 H :    0.025040
  22 C :   -0.014097
  23 H :    0.032195
  24 H :    0.025806
  25 C :   -0.041411
  26 H :    0.026791
  27 H :    0.024293
  28 C :   -0.077728
  29 H :    0.027367
  30 H :    0.021492
  31 H :    0.029177
  32 H :    0.024154
  33 H :    0.036647

-------------------------------
LOEWDIN REDUCED ORBITAL CHARGES
-------------------------------
  0 S s       :     5.492565  s :     5.492565
      pz      :     3.432375  p :     9.952974
      px      :     3.350228
      py      :     3.170371
      dz2     :     0.024249  d :     0.138047
      dxz     :     0.023558
      dyz     :     0.023747
      dx2y2   :     0.024727
      dxy     :     0.041766
  1 C s       :     2.927477  s :     2.927477
      pz      :     1.114753  p :     3.199107
      px      :     1.014674
      py      :     1.069680
      dz2     :     0.007366  d :     0.080337
      dxz     :     0.018619
      dyz     :     0.008734
      dx2y2   :     0.021861
      dxy     :     0.023758
  2 C s       :     2.866014  s :     2.866014
      pz      :     0.990260  p :     3.080525
      px      :     1.064471
      py      :     1.025794
      dz2     :     0.014807  d :     0.108876
      dxz     :     0.021996
      dyz     :     0.013675
      dx2y2   :     0.029457
      dxy     :     0.028942
  3 C s       :     2.868040  s :     2.868040
      pz      :     1.041820  p :     3.108447
      px      :     1.034758
      py      :     1.031868
      dz2     :     0.008297  d :     0.081743
      dxz     :     0.014985
      dyz     :     0.011781
      dx2y2   :     0.024270
      dxy     :     0.022410
  4 C s       :     2.912988  s :     2.912988
      pz      :     1.057313  p :     3.181560
      px      :     1.083418
      py      :     1.040829
      dz2     :     0.013778  d :     0.103682
      dxz     :     0.021033
      dyz     :     0.015570
      dx2y2   :     0.022063
      dxy     :     0.031239
  5 H s       :     0.906791  s :     0.906791
      pz      :     0.026009  p :     0.081779
      px      :     0.027152
      py      :     0.028618
  6 C s       :     2.831851  s :     2.831851
      pz      :     1.047469  p :     3.109444
      px      :     1.028139
      py      :     1.033835
      dz2     :     0.018825  d :     0.091692
      dxz     :     0.011117
      dyz     :     0.024253
      dx2y2   :     0.017258
      dxy     :     0.020238
  7 H s       :     0.904351  s :     0.904351
      pz      :     0.026074  p :     0.065348
      px      :     0.012374
      py      :     0.026900
  8 H s       :     0.897612  s :     0.897612
      pz      :     0.012205  p :     0.061537
      px      :     0.019800
      py      :     0.029532
  9 C s       :     2.817027  s :     2.817027
      pz      :     1.031060  p :     3.120553
      px      :     1.027829
      py      :     1.061664
      dz2     :     0.021727  d :     0.093225
      dxz     :     0.011501
      dyz     :     0.023181
      dx2y2   :     0.015724
      dxy     :     0.021092
 10 H s       :     0.903972  s :     0.903972
      pz      :     0.016346  p :     0.076170
      px      :     0.024944
      py      :     0.034880
 11 H s       :     0.909985  s :     0.909985
      pz      :     0.029407  p :     0.069493
      px      :     0.015447
      py      :     0.024639
 12 C s       :     2.850068  s :     2.850068
      pz      :     1.066431  p :     3.148355
      px      :     1.023034
      py      :     1.058890
      dz2     :     0.013558  d :     0.068516
      dxz     :     0.007381
      dyz     :     0.016909
      dx2y2   :     0.014140
      dxy     :     0.016528
 13 H s       :     0.910612  s :     0.910612
      pz      :     0.032817  p :     0.059760
      px      :     0.012924
      py      :     0.014019
 14 H s       :     0.910294  s :     0.910294
      pz      :     0.011984  p :     0.059882
      px      :     0.021634
      py      :     0.026264
 15 H s       :     0.909831  s :     0.909831
      pz      :     0.025379  p :     0.071831
      px      :     0.015331
      py      :     0.031121
 16 S s       :     5.493536  s :     5.493536
      pz      :     3.429448  p :     9.955618
      px      :     3.239508
      py      :     3.286663
      dz2     :     0.023652  d :     0.138360
      dxz     :     0.024359
      dyz     :     0.022242
      dx2y2   :     0.043925
      dxy     :     0.024182
 17 C s       :     2.932477  s :     2.932477
      pz      :     1.081050  p :     3.174265
      px      :     1.087677
      py      :     1.005538
      dz2     :     0.008539  d :     0.081588
      dxz     :     0.012231
      dyz     :     0.017054
      dx2y2   :     0.025447
      dxy     :     0.018318
 18 C s       :     2.861099  s :     2.861099
      pz      :     1.019184  p :     3.112641
      px      :     1.038009
      py      :     1.055447
      dz2     :     0.014040  d :     0.094847
      dxz     :     0.014488
      dyz     :     0.014043
      dx2y2   :     0.028075
      dxy     :     0.024202
 19 C s       :     2.857111  s :     2.857111
      pz      :     1.013460  p :     3.095123
      px      :     1.024191
      py      :     1.057471
      dz2     :     0.012756  d :     0.106545
      dxz     :     0.013311
      dyz     :     0.021670
      dx2y2   :     0.027819
      dxy     :     0.030989
 20 C s       :     2.890662  s :     2.890662
      pz      :     1.070892  p :     3.197869
      px      :     1.033213
      py      :     1.093764
      dz2     :     0.013872  d :     0.115625
      dxz     :     0.015057
      dyz     :     0.025880
      dx2y2   :     0.034501
      dxy     :     0.026315
 21 H s       :     0.902236  s :     0.902236
      pz      :     0.016184  p :     0.072723
      px      :     0.013810
      py      :     0.042729
 22 C s       :     2.816154  s :     2.816154
      pz      :     1.054921  p :     3.110551
      px      :     1.027519
      py      :     1.028111
      dz2     :     0.018622  d :     0.087392
      dxz     :     0.014757
      dyz     :     0.018429
      dx2y2   :     0.009242
      dxy     :     0.026341
 23 H s       :     0.902629  s :     0.902629
      pz      :     0.013392  p :     0.065175
      px      :     0.028204
      py      :     0.023579
 24 H s       :     0.894446  s :     0.894446
      pz      :     0.040314  p :     0.079748
      px      :     0.019882
      py      :     0.019552
 25 C s       :     2.837432  s :     2.837432
      pz      :     1.037426  p :     3.117504
      px      :     1.045891
      py      :     1.034186
      dz2     :     0.014856  d :     0.086475
      dxz     :     0.021235
      dyz     :     0.017630
      dx2y2   :     0.007387
      dxy     :     0.025367
 26 H s       :     0.902871  s :     0.902871
      pz      :     0.022149  p :     0.070338
      px      :     0.027337
      py      :     0.020852
 27 H s       :     0.912850  s :     0.912850
      pz      :     0.013032  p :     0.062857
      px      :     0.025863
      py      :     0.023962
 28 C s       :     2.842940  s :     2.842940
      pz      :     1.030680  p :     3.165306
      px      :     1.057141
      py      :     1.077485
      dz2     :     0.011478  d :     0.069481
      dxz     :     0.018709
      dyz     :     0.017040
      dx2y2   :     0.002916
      dxy     :     0.019338
 29 H s       :     0.909159  s :     0.909159
      pz      :     0.024577  p :     0.063473
      px      :     0.018845
      py      :     0.020051
 30 H s       :     0.910811  s :     0.910811
      pz      :     0.014631  p :     0.067697
      px      :     0.028798
      py      :     0.024268
 31 H s       :     0.905079  s :     0.905079
      pz      :     0.020058  p :     0.065744
      px      :     0.019287
      py      :     0.026399
 32 H s       :     0.898737  s :     0.898737
      pz      :     0.025957  p :     0.077109
      px      :     0.011126
      py      :     0.040025
 33 H s       :     0.890759  s :     0.890759
      pz      :     0.027646  p :     0.072594
      px      :     0.030122
      py      :     0.014826


                      *****************************
                      * MAYER POPULATION ANALYSIS *
                      *****************************

  NA   - Mulliken gross atomic population
  ZA   - Total nuclear charge
  QA   - Mulliken gross atomic charge
  VA   - Mayer's total valence
  BVA  - Mayer's bonded valence
  FA   - Mayer's free valence

  ATOM       NA         ZA         QA         VA         BVA        FA
  0 S     15.8861    16.0000     0.1139     2.5040     2.5040     0.0000
  1 C      6.1278     6.0000    -0.1278     3.8330     3.8330     0.0000
  2 C      6.0884     6.0000    -0.0884     4.0015     4.0015    -0.0000
  3 C      5.9545     6.0000     0.0455     3.9087     3.9087    -0.0000
  4 C      6.1487     6.0000    -0.1487     3.9071     3.9071     0.0000
  5 H      1.0175     1.0000    -0.0175     1.0066     1.0066    -0.0000
  6 C      5.9464     6.0000     0.0536     3.9529     3.9529    -0.0000
  7 H      0.9813     1.0000     0.0187     0.9904     0.9904    -0.0000
  8 H      0.9521     1.0000     0.0479     0.9847     0.9847    -0.0000
  9 C      6.0513     6.0000    -0.0513     4.0736     4.0736    -0.0000
 10 H      0.9847     1.0000     0.0153     0.9826     0.9826    -0.0000
 11 H      0.9738     1.0000     0.0262     0.9901     0.9901    -0.0000
 12 C      6.0493     6.0000    -0.0493     3.9935     3.9935    -0.0000
 13 H      0.9628     1.0000     0.0372     0.9828     0.9828    -0.0000
 14 H      0.9571     1.0000     0.0429     0.9890     0.9890    -0.0000
 15 H      0.9760     1.0000     0.0240     0.9892     0.9892    -0.0000
 16 S     15.8996    16.0000     0.1004     2.4820     2.4820     0.0000
 17 C      6.1004     6.0000    -0.1004     3.8315     3.8315    -0.0000
 18 C      6.0389     6.0000    -0.0389     3.9602     3.9602     0.0000
 19 C      6.0328     6.0000    -0.0328     4.0185     4.0185     0.0000
 20 C      6.1667     6.0000    -0.1667     3.9542     3.9542     0.0000
 21 H      0.9927     1.0000     0.0073     0.9996     0.9996     0.0000
 22 C      5.8501     6.0000     0.1499     3.9461     3.9461     0.0000
 23 H      0.9875     1.0000     0.0125     1.0059     1.0059    -0.0000
 24 H      0.9762     1.0000     0.0238     0.9913     0.9913    -0.0000
 25 C      6.0885     6.0000    -0.0885     4.0942     4.0942     0.0000
 26 H      0.9712     1.0000     0.0288     0.9765     0.9765     0.0000
 27 H      0.9619     1.0000     0.0381     0.9800     0.9800    -0.0000
 28 C      6.0777     6.0000    -0.0777     3.9820     3.9820     0.0000
 29 H      0.9593     1.0000     0.0407     0.9926     0.9926     0.0000
 30 H      0.9842     1.0000     0.0158     0.9878     0.9878     0.0000
 31 H      0.9618     1.0000     0.0382     0.9872     0.9872     0.0000
 32 H      0.9582     1.0000     0.0418     1.0055     1.0055    -0.0000
 33 H      0.9343     1.0000     0.0657     0.9940     0.9940     0.0000

  Mayer bond orders larger than 0.100000
B(  0-S ,  1-C ) :   1.1253 B(  0-S ,  4-C ) :   1.1770 B(  1-C ,  2-C ) :   1.6050 
B(  1-C , 32-H ) :   0.9722 B(  2-C ,  3-C ) :   1.2412 B(  2-C ,  6-C ) :   1.0288 
B(  3-C ,  4-C ) :   1.5310 B(  3-C ,  5-H ) :   0.9981 B(  4-C , 20-C ) :   1.0474 
B(  6-C ,  7-H ) :   0.9383 B(  6-C ,  8-H ) :   0.9381 B(  6-C ,  9-C ) :   1.0681 
B(  9-C , 10-H ) :   0.9501 B(  9-C , 11-H ) :   0.9605 B(  9-C , 12-C ) :   1.0809 
B( 12-C , 13-H ) :   0.9743 B( 12-C , 14-H ) :   0.9767 B( 12-C , 15-H ) :   0.9740 
B( 16-S , 17-C ) :   1.1343 B( 16-S , 20-C ) :   1.1584 B( 17-C , 18-C ) :   1.6222 
B( 17-C , 33-H ) :   0.9701 B( 18-C , 19-C ) :   1.2283 B( 18-C , 21-H ) :   0.9894 
B( 19-C , 20-C ) :   1.6088 B( 19-C , 22-C ) :   1.0194 B( 22-C , 23-H ) :   0.9328 
B( 22-C , 24-H ) :   0.9255 B( 22-C , 25-C ) :   1.0816 B( 25-C , 26-H ) :   0.9534 
B( 25-C , 27-H ) :   0.9519 B( 25-C , 28-C ) :   1.0637 B( 28-C , 29-H ) :   0.9771 
B( 28-C , 30-H ) :   0.9723 B( 28-C , 31-H ) :   0.9772 

-------
TIMINGS
-------

Total SCF time: 0 days 0 hours 0 min 19 sec 

Total time                  ....      19.596 sec
Sum of individual times     ....      18.731 sec  ( 95.6%)

Fock matrix formation       ....      17.058 sec  ( 87.0%)
  XC integration            ....       1.506 sec  (  8.8% of F)
    Basis function eval.    ....       0.136 sec  (  9.0% of XC)
    Density eval.           ....       0.098 sec  (  6.5% of XC)
    XC-Functional eval.     ....       0.113 sec  (  7.5% of XC)
    XC-Potential eval.      ....       0.116 sec  (  7.7% of XC)
Diagonalization             ....       0.143 sec  (  0.7%)
Density matrix formation    ....       0.022 sec  (  0.1%)
Population analysis         ....       0.051 sec  (  0.3%)
Initial guess               ....       0.167 sec  (  0.9%)
Orbital Transformation      ....       0.000 sec  (  0.0%)
Orbital Orthonormalization  ....       0.000 sec  (  0.0%)
DIIS solution               ....       0.153 sec  (  0.8%)
SOSCF solution              ....       0.128 sec  (  0.7%)
Grid generation             ....       1.010 sec  (  5.2%)


-------------------------------------------------------------------------------
                          DFT DISPERSION CORRECTION                            
                                                                               
                              DFTD3 V3.1  Rev 1                                
                              USING zero damping                               
-------------------------------------------------------------------------------
The omegaB97X-D3 functional is recognized. Fit by Chai et al.
Active option DFTDOPT                   ...         3   

molecular C6(AA) [au] = 14155.753816 


            DFT-D V3
 parameters
 s6 scaling factor         :     1.0000 
 rs6 scaling factor        :     1.2810 
 s8 scaling factor         :     1.0000 
 rs8 scaling factor        :     1.0940 
 Damping factor alpha6     :    14.0000 
 Damping factor alpha8     :    16.0000 
 ad hoc parameters k1-k3   :    16.0000     1.3333    -4.0000 

 Edisp/kcal,au: -8.771197400221  -0.013977791296 
 E6   /kcal   :  -4.015036911 
 E8   /kcal   :  -4.756160489 
 % E8         :  54.224757150 

-------------------------   ----------------
Dispersion correction           -0.013977791
-------------------------   ----------------


-------------------------   --------------------
FINAL SINGLE POINT ENERGY     -1339.882511388861
-------------------------   --------------------


                            ***************************************
                            *     ORCA property calculations      *
                            ***************************************

                                    ---------------------
                                    Active property flags
                                    ---------------------
   (+) Dipole Moment


------------------------------------------------------------------------------
                       ORCA ELECTRIC PROPERTIES CALCULATION
------------------------------------------------------------------------------

Dipole Moment Calculation                       ... on
Quadrupole Moment Calculation                   ... off
Polarizability Calculation                      ... off
GBWName                                         ... config_8745.gbw
Electron density file                           ... config_8745.scfp
The origin for moment calculation is the CENTER OF MASS  = (-41.418675, -60.851803 -176.597019)

-------------
DIPOLE MOMENT
-------------
                                X             Y             Z
Electronic contribution:    -27.60658      -5.05099       3.79016
Nuclear contribution   :     28.14480       5.30007      -3.84139
                        -----------------------------------------
Total Dipole Moment    :      0.53822       0.24908      -0.05124
                        -----------------------------------------
Magnitude (a.u.)       :      0.59527
Magnitude (Debye)      :      1.51306



--------------------
Rotational spectrum 
--------------------
 
Rotational constants in cm-1:     0.018338     0.008490     0.006564 
Rotational constants in MHz :   549.756803   254.520635   196.771727 

 Dipole components along the rotational axes: 
x,y,z [a.u.] :     0.078421     0.589162    -0.032920 
x,y,z [Debye]:     0.199331     1.497532    -0.083676 

 

Timings for individual modules:

Sum of individual times         ...       20.775 sec (=   0.346 min)
GTO integral calculation        ...        0.796 sec (=   0.013 min)   3.8 %
SCF iterations                  ...       19.980 sec (=   0.333 min)  96.2 %
                             ****ORCA TERMINATED NORMALLY****
TOTAL RUN TIME: 0 days 0 hours 0 minutes 21 seconds 454 msec
