
                                 *****************
                                 * O   R   C   A *
                                 *****************

           --- An Ab Initio, DFT and Semiempirical electronic structure package ---

                  #######################################################
                  #                        -***-                        #
                  #          Department of theory and spectroscopy      #
                  #               Directorship: Frank Neese             #
                  #        Max Planck Institute fuer Kohlenforschung    #
                  #                Kaiser Wilhelm Platz 1               #
                  #                 D-45470 Muelheim/Ruhr               #
                  #                      Germany                        #
                  #                                                     #
                  #                  All rights reserved                #
                  #                        -***-                        #
                  #######################################################


                         Program Version 4.2.1 -  RELEASE  -


 With contributions from (in alphabetic order):
   Daniel Aravena         : Magnetic Suceptibility
   Michael Atanasov       : Ab Initio Ligand Field Theory (pilot matlab implementation)
   Alexander A. Auer      : GIAO ZORA, VPT2
   Ute Becker             : Parallelization
   Giovanni Bistoni       : ED, misc. LED, open-shell LED, HFLD
   Martin Brehm           : Molecular dynamics
   Dmytro Bykov           : SCF Hessian
   Vijay G. Chilkuri      : MRCI spin determinant printing, contributions to CSF-ICE
   Dipayan Datta          : RHF DLPNO-CCSD density
   Achintya Kumar Dutta   : EOM-CC, STEOM-CC
   Dmitry Ganyushin       : Spin-Orbit,Spin-Spin,Magnetic field MRCI
   Miquel Garcia          : C-PCM Hessian, Gaussian charge scheme
   Yang Guo               : DLPNO-NEVPT2, CIM, IAO-localization
   Andreas Hansen         : Spin unrestricted coupled pair/coupled cluster methods
   Benjamin Helmich-Paris : CASSCF linear response (MC-RPA)
   Lee Huntington         : MR-EOM, pCC
   Robert Izsak           : Overlap fitted RIJCOSX, COSX-SCS-MP3, EOM
   Christian Kollmar      : KDIIS, OOCD, Brueckner-CCSD(T), CCSD density
   Simone Kossmann        : Meta GGA functionals, TD-DFT gradient, OOMP2, MP2 Hessian
   Martin Krupicka        : AUTO-CI
   Lucas Lang             : DCDCAS
   Dagmar Lenk            : GEPOL surface, SMD
   Dimitrios Liakos       : Extrapolation schemes; Compound Job, initial MDCI parallelization
   Dimitrios Manganas     : Further ROCIS development; embedding schemes
   Dimitrios Pantazis     : SARC Basis sets
   Taras Petrenko         : DFT Hessian,TD-DFT gradient, ASA, ECA, R-Raman, ABS, FL, XAS/XES, NRVS
   Peter Pinski           : DLPNO-MP2, DLPNO-MP2 Gradient
   Christoph Reimann      : Effective Core Potentials
   Marius Retegan         : Local ZFS, SOC
   Christoph Riplinger    : Optimizer, TS searches, QM/MM, DLPNO-CCSD(T), (RO)-DLPNO pert. Triples
   Tobias Risthaus        : Range-separated hybrids, TD-DFT gradient, RPA, STAB
   Michael Roemelt        : Original ROCIS implementation
   Masaaki Saitow         : Open-shell DLPNO-CCSD energy and density
   Barbara Sandhoefer     : DKH picture change effects
   Avijit Sen             : IP-ROCIS
   Kantharuban Sivalingam : CASSCF convergence, NEVPT2, FIC-MRCI
   Bernardo de Souza      : ESD, SOC TD-DFT
   Georgi Stoychev        : AutoAux, RI-MP2 NMR
   Willem Van den Heuvel  : Paramagnetic NMR
   Boris Wezisla          : Elementary symmetry handling
   Frank Wennmohs         : Technical directorship


 We gratefully acknowledge several colleagues who have allowed us to
 interface, adapt or use parts of their codes:
   Stefan Grimme, W. Hujo, H. Kruse,             : VdW corrections, initial TS optimization,
                  C. Bannwarth                     DFT functionals, gCP, sTDA/sTD-DF
   Ed Valeev, F. Pavosevic, A. Kumar             : LibInt (2-el integral package), F12 methods
   Garnet Chan, S. Sharma, J. Yang, R. Olivares  : DMRG
   Ulf Ekstrom                                   : XCFun DFT Library
   Mihaly Kallay                                 : mrcc  (arbitrary order and MRCC methods)
   Andreas Klamt, Michael Diedenhofen            : otool_cosmo (COSMO solvation model)
   Jiri Pittner, Ondrej Demel                    : Mk-CCSD
   Frank Weinhold                                : gennbo (NPA and NBO analysis)
   Christopher J. Cramer and Donald G. Truhlar   : smd solvation model
   Lars Goerigk                                  : TD-DFT with DH, B97 family of functionals
   V. Asgeirsson, H. Jonsson                     : NEB implementation
   FAccTs GmbH                                   : IRC, NEB, NEB-TS, Multilevel, MM, QM/MM, CI optimization
   S Lehtola, MJT Oliveira, MAL Marques          : LibXC Library


 Your calculation uses the libint2 library for the computation of 2-el integrals
 For citations please refer to: http://libint.valeyev.net

 Your ORCA version has been built with support for libXC version: 4.2.3
 For citations please refer to: https://tddft.org/programs/libxc/

 This ORCA versions uses:
   CBLAS   interface :  Fast vector & matrix operations
   LAPACKE interface :  Fast linear algebra routines
   SCALAPACK package :  Parallel linear algebra routines


Your calculation utilizes the atom-pairwise dispersion correction
with the zero-damping scheme (D30)
Cite in your paper:
S.Grimme, J.Antony, S.Ehrlich and H.Krieg, J.Chem.Phys., 132, (2010), 154104 
   

XCFun DFT library Copyright 2009-2010 Ulf Ekstrom and contributors.
See http://admol.org/xcfun for more information. This is free soft-
ware; see the source code for copying conditions. There is ABSOLUTELY
NO WARRANTY; not even for MERCHANTABILITY or FITNESS FOR A PARTICULAR
PURPOSE. For details see the documentation. Scientific users of this 
library should cite U. Ekstrom, L. Visscher, R. Bast, A. J. Thorvald-
sen and K. Ruud; J.Chem.Theor.Comp. 2010, DOI: 10.1021/ct100117s
XCFun Version 0.99 
----- Orbital basis set information -----
Your calculation utilizes the basis: def2-SVP
   F. Weigend and R. Ahlrichs, Phys. Chem. Chem. Phys. 7, 3297 (2005).

================================================================================
                                        WARNINGS
                       Please study these warnings very carefully!
================================================================================


INFO   : the flag for use of LIBINT has been found!

================================================================================
                                       INPUT FILE
================================================================================
NAME = config_7814.inp
|  1> ! wB97X-D3 SP def2-SVP
|  2> %pal
|  3> nprocs 24
|  4> end
|  5> 
|  6> * xyz 0 1
|  7> S 	 -85.4063 	 -29.1549 	 -79.3063 	 
|  8> C 	 -85.5587 	 -28.863 	 -81.0482 	 
|  9> C 	 -86.4802 	 -29.6166 	 -81.6614 	 
| 10> C 	 -87.1465 	 -30.5081 	 -80.7616 	 
| 11> C 	 -86.6409 	 -30.4085 	 -79.4622 	 
| 12> H 	 -88.0141 	 -31.2379 	 -80.9622 	 
| 13> C 	 -86.7989 	 -29.4776 	 -83.1328 	 
| 14> H 	 -87.0749 	 -30.5343 	 -83.3286 	 
| 15> H 	 -85.9169 	 -29.2064 	 -83.767 	 
| 16> C 	 -88.0374 	 -28.7514 	 -83.5572 	 
| 17> H 	 -88.1069 	 -28.7203 	 -84.6321 	 
| 18> H 	 -88.8894 	 -29.2592 	 -83.175 	 
| 19> C 	 -87.9979 	 -27.3463 	 -83.058 	 
| 20> H 	 -87.8707 	 -27.2295 	 -81.977 	 
| 21> H 	 -87.3492 	 -26.7051 	 -83.5664 	 
| 22> H 	 -88.9509 	 -26.8735 	 -83.3146 	 
| 23> S 	 -85.8454 	 -32.0773 	 -77.4678 	 
| 24> C 	 -87.0058 	 -32.8305 	 -76.4006 	 
| 25> C 	 -88.2729 	 -32.4098 	 -76.7141 	 
| 26> C 	 -88.325 	 -31.4516 	 -77.7672 	 
| 27> C 	 -87.102 	 -31.1455 	 -78.3026 	 
| 28> H 	 -89.2136 	 -32.7392 	 -76.2437 	 
| 29> C 	 -89.675 	 -30.9788 	 -78.319 	 
| 30> H 	 -90.2369 	 -31.9036 	 -78.3656 	 
| 31> H 	 -89.6605 	 -30.4899 	 -79.2848 	 
| 32> C 	 -90.2257 	 -30.0007 	 -77.3052 	 
| 33> H 	 -89.6002 	 -29.1135 	 -77.3151 	 
| 34> H 	 -90.2753 	 -30.2963 	 -76.2564 	 
| 35> C 	 -91.6462 	 -29.5071 	 -77.7562 	 
| 36> H 	 -91.9311 	 -28.6843 	 -77.0709 	 
| 37> H 	 -92.3279 	 -30.2798 	 -77.7459 	 
| 38> H 	 -91.5217 	 -28.9745 	 -78.7298 	 
| 39> H 	 -84.9704 	 -28.092 	 -81.5907 	 
| 40> H 	 -86.8101 	 -33.5614 	 -75.6502 	 
| 41> *
| 42> 
| 43>                          ****END OF INPUT****
================================================================================

                       ****************************
                       * Single Point Calculation *
                       ****************************

---------------------------------
CARTESIAN COORDINATES (ANGSTROEM)
---------------------------------
  S    -85.406300  -29.154900  -79.306300
  C    -85.558700  -28.863000  -81.048200
  C    -86.480200  -29.616600  -81.661400
  C    -87.146500  -30.508100  -80.761600
  C    -86.640900  -30.408500  -79.462200
  H    -88.014100  -31.237900  -80.962200
  C    -86.798900  -29.477600  -83.132800
  H    -87.074900  -30.534300  -83.328600
  H    -85.916900  -29.206400  -83.767000
  C    -88.037400  -28.751400  -83.557200
  H    -88.106900  -28.720300  -84.632100
  H    -88.889400  -29.259200  -83.175000
  C    -87.997900  -27.346300  -83.058000
  H    -87.870700  -27.229500  -81.977000
  H    -87.349200  -26.705100  -83.566400
  H    -88.950900  -26.873500  -83.314600
  S    -85.845400  -32.077300  -77.467800
  C    -87.005800  -32.830500  -76.400600
  C    -88.272900  -32.409800  -76.714100
  C    -88.325000  -31.451600  -77.767200
  C    -87.102000  -31.145500  -78.302600
  H    -89.213600  -32.739200  -76.243700
  C    -89.675000  -30.978800  -78.319000
  H    -90.236900  -31.903600  -78.365600
  H    -89.660500  -30.489900  -79.284800
  C    -90.225700  -30.000700  -77.305200
  H    -89.600200  -29.113500  -77.315100
  H    -90.275300  -30.296300  -76.256400
  C    -91.646200  -29.507100  -77.756200
  H    -91.931100  -28.684300  -77.070900
  H    -92.327900  -30.279800  -77.745900
  H    -91.521700  -28.974500  -78.729800
  H    -84.970400  -28.092000  -81.590700
  H    -86.810100  -33.561400  -75.650200

----------------------------
CARTESIAN COORDINATES (A.U.)
----------------------------
  NO LB      ZA    FRAG     MASS         X           Y           Z
   0 S    16.0000    0    32.060  -161.394517  -55.094776  -149.867188
   1 C     6.0000    0    12.011  -161.682511  -54.543165  -153.158902
   2 C     6.0000    0    12.011  -163.423894  -55.967263  -154.317682
   3 C     6.0000    0    12.011  -164.683019  -57.651954  -152.617306
   4 C     6.0000    0    12.011  -163.727573  -57.463737  -150.161796
   5 H     1.0000    0     1.008  -166.322545  -59.031076  -152.996385
   6 C     6.0000    0    12.011  -164.026150  -55.704591  -157.098225
   7 H     1.0000    0     1.008  -164.547714  -57.701465  -157.468233
   8 H     1.0000    0     1.008  -162.359411  -55.192097  -158.296689
   9 C     6.0000    0    12.011  -166.366576  -54.332272  -157.900225
  10 H     1.0000    0     1.008  -166.497912  -54.273501  -159.931491
  11 H     1.0000    0     1.008  -167.976622  -55.291875  -157.177971
  12 C     6.0000    0    12.011  -166.291931  -51.677018  -156.956873
  13 H     1.0000    0     1.008  -166.051558  -51.456298  -154.914079
  14 H     1.0000    0     1.008  -165.066066  -50.465325  -157.917610
  15 H     1.0000    0     1.008  -168.092840  -50.783555  -157.441777
  16 S    16.0000    0    32.060  -162.224296  -60.617312  -146.392926
  17 C     6.0000    0    12.011  -164.417134  -62.040654  -144.376210
  18 C     6.0000    0    12.011  -166.811606  -61.245646  -144.968640
  19 C     6.0000    0    12.011  -166.910061  -59.434910  -146.958710
  20 C     6.0000    0    12.011  -164.598926  -58.856465  -147.970470
  21 H     1.0000    0     1.008  -168.589271  -61.868122  -144.079712
  22 C     6.0000    0    12.011  -169.461191  -58.541448  -148.001461
  23 H     1.0000    0     1.008  -170.523028  -60.289067  -148.089522
  24 H     1.0000    0     1.008  -169.433790  -57.617561  -149.826559
  25 C     6.0000    0    12.011  -170.501863  -56.693107  -146.085657
  26 H     1.0000    0     1.008  -169.319840  -55.016542  -146.104365
  27 H     1.0000    0     1.008  -170.595594  -57.251710  -144.103712
  28 C     6.0000    0    12.011  -173.186219  -55.760338  -146.937923
  29 H     1.0000    0     1.008  -173.724602  -54.205471  -145.642894
  30 H     1.0000    0     1.008  -174.474446  -57.220529  -146.918459
  31 H     1.0000    0     1.008  -172.950948  -54.753870  -148.777761
  32 H     1.0000    0     1.008  -160.570785  -53.086187  -154.184078
  33 H     1.0000    0     1.008  -164.047315  -63.421855  -142.958160

--------------------------------
INTERNAL COORDINATES (ANGSTROEM)
--------------------------------
 S      0   0   0     0.000000000000     0.00000000     0.00000000
 C      1   0   0     1.772751245945     0.00000000     0.00000000
 C      2   1   0     1.339062899942   114.61104123     0.00000000
 C      3   2   1     1.431212066746   112.52155977   359.83127727
 C      4   3   2     1.397852595949   111.81721922   357.98103421
 H      4   3   2     1.151337552588   129.50287474   176.52864692
 C      3   2   1     1.511922170616   122.61414201   177.48189771
 H      7   3   2     1.109562314609    97.85196755   148.87846892
 H      7   3   2     1.119679900686   114.04496533    33.87843073
 C      7   3   2     1.497118582478   119.66008350   257.42148904
 H     10   7   3     1.077593369504   110.49483571   178.67141077
 H     10   7   3     1.062940111201   109.23396849   298.21553147
 C     10   7   3     1.491665813780   109.88544573    59.64236962
 H     13  10   7     1.094706846603   115.72482312   303.85347743
 H     13  10   7     1.044231626604   115.58957711    74.61879480
 H     13  10   7     1.094345649235   107.78439465   184.59966704
 S      5   4   3     2.719438370326   138.05734246   226.04370166
 C     17   5   4     1.747213278338   121.21257582   278.91728223
 C     18  17   5     1.371427413318   109.98381410   358.00159188
 C     19  18  17     1.424739014697   114.14594286   357.76731587
 C     20  19  18     1.369700467256   113.98983982     1.55136364
 H     19  18  17     1.102132936628   126.82322965   177.49298589
 C     20  19  18     1.533141572067   120.37353097   174.47019136
 H     23  20  19     1.083124281881   102.06275487   318.21806050
 H     23  20  19     1.082590919969   116.65137526   197.39038226
 C     23  20  19     1.512527864206   106.18759786    76.87317336
 H     26  23  20     1.085574548338   108.21575374    68.17137337
 H     26  23  20     1.090789145527   119.06351559   308.71509358
 C     26  23  20     1.569987964922   109.88853606   182.50866457
 H     29  26  23     1.108063148020   106.76392348   188.62168568
 H     29  26  23     1.030478660623   111.09574548    65.78967619
 H     29  26  23     1.116718393329   107.42891015   297.80020816
 H      2   1   3     1.111235411603   123.25945316   177.72125500
 H     18  17   5     1.065651659784   127.14341812   174.10180311

---------------------------
INTERNAL COORDINATES (A.U.)
---------------------------
 S      0   0   0     0.000000000000     0.00000000     0.00000000
 C      1   0   0     3.350014358404     0.00000000     0.00000000
 C      2   1   0     2.530462156984   114.61104123     0.00000000
 C      3   2   1     2.704598845714   112.52155977   359.83127727
 C      4   3   2     2.641558581934   111.81721922   357.98103421
 H      4   3   2     2.175712662091   129.50287474   176.52864692
 C      3   2   1     2.857118838268   122.61414201   177.48189771
 H      7   3   2     2.096768903130    97.85196755   148.87846892
 H      7   3   2     2.115888369953   114.04496533    33.87843073
 C      7   3   2     2.829144110887   119.66008350   257.42148904
 H     10   7   3     2.036356352093   110.49483571   178.67141077
 H     10   7   3     2.008665706930   109.23396849   298.21553147
 C     10   7   3     2.818839871377   109.88544573    59.64236962
 H     13  10   7     2.068696137009   115.72482312   303.85347743
 H     13  10   7     1.973311794661   115.58957711    74.61879480
 H     13  10   7     2.068013572903   107.78439465   184.59966704
 S      5   4   3     5.138993757993   138.05734246   226.04370166
 C     17   5   4     3.301754593609   121.21257582   278.91728223
 C     18  17   5     2.591622223723   109.98381410   358.00159188
 C     19  18  17     2.692366550090   114.14594286   357.76731587
 C     20  19  18     2.588358768617   113.98983982     1.55136364
 H     19  18  17     2.082729413401   126.82322965   177.49298589
 C     20  19  18     2.897217695736   120.37353097   174.47019136
 H     23  20  19     2.046808261755   102.06275487   318.21806050
 H     23  20  19     2.045800353812   116.65137526   197.39038226
 C     23  20  19     2.858263433274   106.18759786    76.87317336
 H     26  23  20     2.051438594315   108.21575374    68.17137337
 H     26  23  20     2.061292754900   119.06351559   308.71509358
 C     26  23  20     2.966847287255   109.88853606   182.50866457
 H     29  26  23     2.093935888848   106.76392348   188.62168568
 H     29  26  23     1.947322455428   111.09574548    65.78967619
 H     29  26  23     2.110291932105   107.42891015   297.80020816
 H      2   1   3     2.099930598245   123.25945316   177.72125500
 H     18  17   5     2.013789791150   127.14341812   174.10180311

---------------------
BASIS SET INFORMATION
---------------------
There are 3 groups of distinct atoms

 Group   1 Type S   : 10s7p1d contracted to 4s3p1d pattern {5311/511/1}
 Group   2 Type C   : 7s4p1d contracted to 3s2p1d pattern {511/31/1}
 Group   3 Type H   : 4s1p contracted to 2s1p pattern {31/1}

Atom   0S    basis set group =>   1
Atom   1C    basis set group =>   2
Atom   2C    basis set group =>   2
Atom   3C    basis set group =>   2
Atom   4C    basis set group =>   2
Atom   5H    basis set group =>   3
Atom   6C    basis set group =>   2
Atom   7H    basis set group =>   3
Atom   8H    basis set group =>   3
Atom   9C    basis set group =>   2
Atom  10H    basis set group =>   3
Atom  11H    basis set group =>   3
Atom  12C    basis set group =>   2
Atom  13H    basis set group =>   3
Atom  14H    basis set group =>   3
Atom  15H    basis set group =>   3
Atom  16S    basis set group =>   1
Atom  17C    basis set group =>   2
Atom  18C    basis set group =>   2
Atom  19C    basis set group =>   2
Atom  20C    basis set group =>   2
Atom  21H    basis set group =>   3
Atom  22C    basis set group =>   2
Atom  23H    basis set group =>   3
Atom  24H    basis set group =>   3
Atom  25C    basis set group =>   2
Atom  26H    basis set group =>   3
Atom  27H    basis set group =>   3
Atom  28C    basis set group =>   2
Atom  29H    basis set group =>   3
Atom  30H    basis set group =>   3
Atom  31H    basis set group =>   3
Atom  32H    basis set group =>   3
Atom  33H    basis set group =>   3


           ************************************************************
           *        Program running with 24 parallel MPI-processes    *
           *              working on a common directory               *
           ************************************************************
------------------------------------------------------------------------------
                           ORCA GTO INTEGRAL CALCULATION
------------------------------------------------------------------------------

                         BASIS SET STATISTICS AND STARTUP INFO

 # of primitive gaussian shells          ...  294
 # of primitive gaussian functions       ...  534
 # of contracted shells                  ...  154
 # of contracted basis functions         ...  322
 Highest angular momentum                ...    2
 Maximum contraction depth               ...    5
 Integral package used                   ... LIBINT
 Integral threshhold            Thresh   ...  1.000e-10
 Primitive cut-off              TCut     ...  1.000e-11


------------------------------ INTEGRAL EVALUATION ----------------------------


 * One electron integrals 
 Pre-screening matrix                    ... done
 Shell pair data                         ... done (   0.003 sec)



           ************************************************************
           *        Program running with 24 parallel MPI-processes    *
           *              working on a common directory               *
           ************************************************************
-------------------------------------------------------------------------------
                                 ORCA SCF
-------------------------------------------------------------------------------

------------
SCF SETTINGS
------------
Hamiltonian:
 Density Functional     Method          .... DFT(GTOs)
 Exchange Functional    Exchange        .... WB97X-D3
 Correlation Functional Correlation     .... WB97X-D3
 Gradients option       PostSCFGGA      .... off
 Hybrid DFT is turned on
   Fraction HF Exchange ScalHFX         ....  0.195728
   Scaling of DF-GGA-X  ScalDFX         ....  0.000000
   Scaling of DF-GGA-C  ScalDFC         ....  1.000000
   Scaling of DF-LDA-C  ScalLDAC        ....  1.000000
   Perturbative correction              ....  0.000000
   Density functional embedding theory  .... OFF
 Long-range corrected/Screened/Range-Separated Hybrid DFT is turned on
   Amount of maximum screened exact exchange              ....  0.804272
   Range separation parameter mu (erf(mu*r12)/r12)        ....  0.250000


General Settings:
 Integral files         IntName         .... config_7814
 Hartree-Fock type      HFTyp           .... RHF
 Total Charge           Charge          ....    0
 Multiplicity           Mult            ....    1
 Number of Electrons    NEL             ....  134
 Basis Dimension        Dim             ....  322
 Nuclear Repulsion      ENuc            ....   1287.5731711659 Eh

Convergence Acceleration:
 DIIS                   CNVDIIS         .... on
   Start iteration      DIISMaxIt       ....    12
   Startup error        DIISStart       ....  0.200000
   # of expansion vecs  DIISMaxEq       ....     5
   Bias factor          DIISBfac        ....   1.050
   Max. coefficient     DIISMaxC        ....  10.000
 Newton-Raphson         CNVNR           .... off
 SOSCF                  CNVSOSCF        .... on
   Start iteration      SOSCFMaxIt      ....   150
   Startup grad/error   SOSCFStart      ....  0.003300
 Level Shifting         CNVShift        .... on
   Level shift para.    LevelShift      ....    0.2500
   Turn off err/grad.   ShiftErr        ....    0.0010
 Zerner damping         CNVZerner       .... off
 Static damping         CNVDamp         .... on
   Fraction old density DampFac         ....    0.7000
   Max. Damping (<1)    DampMax         ....    0.9800
   Min. Damping (>=0)   DampMin         ....    0.0000
   Turn off err/grad.   DampErr         ....    0.1000
 Fernandez-Rico         CNVRico         .... off

SCF Procedure:
 Maximum # iterations   MaxIter         ....   125
 SCF integral mode      SCFMode         .... Direct
   Integral package                     .... LIBINT
 Reset frequency        DirectResetFreq ....    20
 Integral Threshold     Thresh          ....  1.000e-10 Eh
 Primitive CutOff       TCut            ....  1.000e-11 Eh

Convergence Tolerance:
 Convergence Check Mode ConvCheckMode   .... Total+1el-Energy
 Convergence forced     ConvForced      .... 0
 Energy Change          TolE            ....  1.000e-06 Eh
 1-El. energy change                    ....  1.000e-03 Eh
 Orbital Gradient       TolG            ....  5.000e-05
 Orbital Rotation angle TolX            ....  5.000e-05
 DIIS Error             TolErr          ....  1.000e-06


Diagonalization of the overlap matrix:
Smallest eigenvalue                        ... 5.512e-04
Time for diagonalization                   ...    0.014 sec
Threshold for overlap eigenvalues          ... 1.000e-08
Number of eigenvalues below threshold      ... 0
Time for construction of square roots      ...    0.026 sec
Total time needed                          ...    0.041 sec

-------------------
DFT GRID GENERATION
-------------------

General Integration Accuracy     IntAcc      ...  4.340
Radial Grid Type                 RadialGrid  ... Gauss-Chebyshev
Angular Grid (max. acc.)         AngularGrid ... Lebedev-110
Angular grid pruning method      GridPruning ... 3 (G Style)
Weight generation scheme         WeightScheme... Becke
Basis function cutoff            BFCut       ...    1.0000e-10
Integration weight cutoff        WCut        ...    1.0000e-14
Grids for H and He will be reduced by one unit

# of grid points (after initial pruning)     ...  41088 (   0.0 sec)
# of grid points (after weights+screening)   ...  36903 (   0.0 sec)
nearest neighbour list constructed           ...    0.0 sec
Grid point re-assignment to atoms done       ...    0.0 sec
Grid point division into batches done        ...    0.0 sec
Reduced shell lists constructed in    0.1 sec

Total number of grid points                  ...    36903
Total number of batches                      ...      592
Average number of points per batch           ...       62
Average number of grid points per atom       ...     1085
Average number of shells per batch           ...    72.46 (47.05%)
Average number of basis functions per batch  ...   142.23 (44.17%)
Average number of large shells per batch     ...    46.62 (64.33%)
Average number of large basis fcns per batch ...    95.54 (67.17%)
Maximum spatial batch extension              ...  19.37, 17.13, 14.49 au
Average spatial batch extension              ...   0.18,  0.18,  0.16 au

Time for grid setup =    0.147 sec

------------------------------
INITIAL GUESS: MODEL POTENTIAL
------------------------------
Loading Hartree-Fock densities                     ... done
Calculating cut-offs                               ... done
Setting up the integral package                    ... done
Initializing the effective Hamiltonian             ... done
Starting the Coulomb interaction                   ... done (   0.0 sec)
Reading the grid                                   ... done
Mapping shells                                     ... done
Starting the XC term evaluation                    ... done (   0.0 sec)
  promolecular density results
     # of electrons  =    134.002696884
     EX              =   -126.750506103
     EC              =     -4.624709727
     EX+EC           =   -131.375215831
Transforming the Hamiltonian                       ... done (   0.0 sec)
Diagonalizing the Hamiltonian                      ... done (   0.0 sec)
Back transforming the eigenvectors                 ... done (   0.0 sec)
Now organizing SCF variables                       ... done
                      ------------------
                      INITIAL GUESS DONE (   0.3 sec)
                      ------------------
--------------
SCF ITERATIONS
--------------
ITER       Energy         Delta-E        Max-DP      RMS-DP      [F,P]     Damp
               ***  Starting incremental Fock matrix formation  ***
  0  -1339.4091325847   0.000000000000 0.06833050  0.00161508  0.1739088 0.7000
  1  -1339.6037637552  -0.194631170467 0.04551878  0.00117319  0.1040797 0.7000
                               ***Turning on DIIS***
  2  -1339.6975237103  -0.093759955079 0.07837900  0.00221717  0.0532675 0.0000
  3  -1339.8389756377  -0.141451927398 0.04265239  0.00099098  0.0482382 0.0000
  4  -1339.8695934860  -0.030617848305 0.00812325  0.00020539  0.0079733 0.0000
                      *** Initiating the SOSCF procedure ***
                           *** Shutting down DIIS ***
                      *** Re-Reading the Fockian *** 
                      *** Removing any level shift *** 
ITER      Energy       Delta-E        Grad      Rot      Max-DP    RMS-DP
  5  -1339.87054617  -0.0009526850  0.001320  0.001320  0.003109  0.000101
               *** Restarting incremental Fock matrix formation ***
  6  -1339.87073895  -0.0001927796  0.001284  0.003564  0.002721  0.000065
  7  -1339.87080406  -0.0000651069  0.000629  0.004196  0.002900  0.000065
  8  -1339.87082135  -0.0000172916  0.000466  0.000849  0.000829  0.000023
  9  -1339.87082685  -0.0000055046  0.000142  0.000414  0.000353  0.000009
 10  -1339.87082734  -0.0000004822  0.000068  0.000227  0.000140  0.000004
                 **** Energy Check signals convergence ****
              ***Rediagonalizing the Fockian in SOSCF/NRSCF***

               *****************************************************
               *                     SUCCESS                       *
               *           SCF CONVERGED AFTER  11 CYCLES          *
               *****************************************************

Setting up the final grid:

General Integration Accuracy     IntAcc      ...  4.670
Radial Grid Type                 RadialGrid  ... Gauss-Chebyshev
Angular Grid (max. acc.)         AngularGrid ... Lebedev-302
Angular grid pruning method      GridPruning ... 3 (G Style)
Weight generation scheme         WeightScheme... Becke
Basis function cutoff            BFCut       ...    1.0000e-10
Integration weight cutoff        WCut        ...    1.0000e-14
Grids for H and He will be reduced by one unit

# of grid points (after initial pruning)     ... 161752 (   0.0 sec)
# of grid points (after weights+screening)   ... 142537 (   0.1 sec)
nearest neighbour list constructed           ...    0.0 sec
Grid point re-assignment to atoms done       ...    0.0 sec
Grid point division into batches done        ...    0.5 sec
Reduced shell lists constructed in    0.5 sec

Total number of grid points                  ...   142537
Total number of batches                      ...     2242
Average number of points per batch           ...       63
Average number of grid points per atom       ...     4192
Average number of shells per batch           ...    66.03 (42.88%)
Average number of basis functions per batch  ...   128.92 (40.04%)
Average number of large shells per batch     ...    40.72 (61.66%)
Average number of large basis fcns per batch ...    83.49 (64.77%)
Maximum spatial batch extension              ...  13.08, 12.88, 13.89 au
Average spatial batch extension              ...   0.11,  0.11,  0.11 au

Final grid set up in    0.8 sec
Final integration                            ... done (   0.3 sec)
Change in XC energy                          ...     0.007825798
Integrated number of electrons               ...   133.999948713
Previous integrated no of electrons          ...   134.008500987

----------------
TOTAL SCF ENERGY
----------------

Total Energy       :        -1339.86300179 Eh          -36459.52585 eV

Components:
Nuclear Repulsion  :         1287.57317117 Eh           35036.64722 eV
Electronic Energy  :        -2627.43617295 Eh          -71496.17306 eV
One Electron Energy:        -4391.78982829 Eh         -119506.67683 eV
Two Electron Energy:         1764.35365534 Eh           48010.50377 eV

Virial components:
Potential Energy   :        -2671.61201387 Eh          -72698.25881 eV
Kinetic Energy     :         1331.74901209 Eh           36238.73296 eV
Virial Ratio       :            2.00609273


DFT components:
N(Alpha)           :       66.999974356432 electrons
N(Beta)            :       66.999974356432 electrons
N(Total)           :      133.999948712863 electrons
E(XC)              :      -94.299001910276 Eh       
DFET-embed. en.    :        0.000000000000 Eh       

---------------
SCF CONVERGENCE
---------------

  Last Energy change         ...   -2.5063e-07  Tolerance :   1.0000e-06
  Last MAX-Density change    ...    2.9289e-05  Tolerance :   1.0000e-05
  Last RMS-Density change    ...    6.3708e-07  Tolerance :   1.0000e-06
  Last Orbital Gradient      ...    6.8076e-06  Tolerance :   5.0000e-05
  Last Orbital Rotation      ...    1.6217e-05  Tolerance :   5.0000e-05

             **** THE GBW FILE WAS UPDATED (config_7814.gbw) ****
             **** DENSITY FILE WAS UPDATED (config_7814.scfp) ****
             **** ENERGY FILE WAS UPDATED (config_7814.en.tmp) ****
             **** THE GBW FILE WAS UPDATED (config_7814.gbw) ****
             **** DENSITY FILE WAS UPDATED (config_7814.scfp) ****
----------------
ORBITAL ENERGIES
----------------

  NO   OCC          E(Eh)            E(eV) 
   0   2.0000     -88.967530     -2420.9296 
   1   2.0000     -88.960609     -2420.7412 
   2   2.0000     -10.332380      -281.1583 
   3   2.0000     -10.322523      -280.8901 
   4   2.0000     -10.316855      -280.7359 
   5   2.0000     -10.312090      -280.6062 
   6   2.0000     -10.304912      -280.4109 
   7   2.0000     -10.299923      -280.2752 
   8   2.0000     -10.298486      -280.2360 
   9   2.0000     -10.293948      -280.1126 
  10   2.0000     -10.291588      -280.0483 
  11   2.0000     -10.291195      -280.0376 
  12   2.0000     -10.283130      -279.8182 
  13   2.0000     -10.279806      -279.7277 
  14   2.0000     -10.275342      -279.6063 
  15   2.0000     -10.265482      -279.3380 
  16   2.0000      -8.081775      -219.9163 
  17   2.0000      -8.075375      -219.7421 
  18   2.0000      -6.040272      -164.3642 
  19   2.0000      -6.036510      -164.2618 
  20   2.0000      -6.033929      -164.1915 
  21   2.0000      -6.032408      -164.1502 
  22   2.0000      -6.029852      -164.0806 
  23   2.0000      -6.026093      -163.9783 
  24   2.0000      -1.006228       -27.3808 
  25   2.0000      -0.984851       -26.7992 
  26   2.0000      -0.921648       -25.0793 
  27   2.0000      -0.911829       -24.8121 
  28   2.0000      -0.872649       -23.7460 
  29   2.0000      -0.849932       -23.1278 
  30   2.0000      -0.843912       -22.9640 
  31   2.0000      -0.811759       -22.0891 
  32   2.0000      -0.785250       -21.3677 
  33   2.0000      -0.774262       -21.0687 
  34   2.0000      -0.708575       -19.2813 
  35   2.0000      -0.696620       -18.9560 
  36   2.0000      -0.695610       -18.9285 
  37   2.0000      -0.665456       -18.1080 
  38   2.0000      -0.635227       -17.2854 
  39   2.0000      -0.616140       -16.7660 
  40   2.0000      -0.600509       -16.3407 
  41   2.0000      -0.571766       -15.5586 
  42   2.0000      -0.567406       -15.4399 
  43   2.0000      -0.549716       -14.9585 
  44   2.0000      -0.548999       -14.9390 
  45   2.0000      -0.527576       -14.3561 
  46   2.0000      -0.517368       -14.0783 
  47   2.0000      -0.513755       -13.9800 
  48   2.0000      -0.500650       -13.6234 
  49   2.0000      -0.495336       -13.4788 
  50   2.0000      -0.491668       -13.3790 
  51   2.0000      -0.484268       -13.1776 
  52   2.0000      -0.470943       -12.8150 
  53   2.0000      -0.465487       -12.6665 
  54   2.0000      -0.461808       -12.5664 
  55   2.0000      -0.449292       -12.2258 
  56   2.0000      -0.440280       -11.9806 
  57   2.0000      -0.438811       -11.9406 
  58   2.0000      -0.431437       -11.7400 
  59   2.0000      -0.429200       -11.6791 
  60   2.0000      -0.427046       -11.6205 
  61   2.0000      -0.411995       -11.2109 
  62   2.0000      -0.403117       -10.9694 
  63   2.0000      -0.344674        -9.3790 
  64   2.0000      -0.333799        -9.0831 
  65   2.0000      -0.326598        -8.8872 
  66   2.0000      -0.296059        -8.0562 
  67   0.0000       0.033992         0.9250 
  68   0.0000       0.069232         1.8839 
  69   0.0000       0.110229         2.9995 
  70   0.0000       0.118747         3.2313 
  71   0.0000       0.125754         3.4219 
  72   0.0000       0.141721         3.8564 
  73   0.0000       0.144626         3.9355 
  74   0.0000       0.152348         4.1456 
  75   0.0000       0.165981         4.5166 
  76   0.0000       0.167866         4.5679 
  77   0.0000       0.176190         4.7944 
  78   0.0000       0.190276         5.1777 
  79   0.0000       0.194494         5.2925 
  80   0.0000       0.197875         5.3845 
  81   0.0000       0.206017         5.6060 
  82   0.0000       0.208026         5.6607 
  83   0.0000       0.219333         5.9684 
  84   0.0000       0.223232         6.0745 
  85   0.0000       0.233614         6.3570 
  86   0.0000       0.241665         6.5760 
  87   0.0000       0.244069         6.6414 
  88   0.0000       0.247449         6.7334 
  89   0.0000       0.251943         6.8557 
  90   0.0000       0.252922         6.8824 
  91   0.0000       0.259652         7.0655 
  92   0.0000       0.267273         7.2729 
  93   0.0000       0.293816         7.9952 
  94   0.0000       0.300680         8.1819 
  95   0.0000       0.316421         8.6102 
  96   0.0000       0.323315         8.7978 
  97   0.0000       0.336077         9.1451 
  98   0.0000       0.353550         9.6206 
  99   0.0000       0.365364         9.9421 
 100   0.0000       0.380845        10.3633 
 101   0.0000       0.396002        10.7758 
 102   0.0000       0.413258        11.2453 
 103   0.0000       0.428521        11.6606 
 104   0.0000       0.434384        11.8202 
 105   0.0000       0.446605        12.1527 
 106   0.0000       0.465539        12.6680 
 107   0.0000       0.479500        13.0479 
 108   0.0000       0.486080        13.2269 
 109   0.0000       0.497576        13.5397 
 110   0.0000       0.506305        13.7773 
 111   0.0000       0.512161        13.9366 
 112   0.0000       0.517469        14.0810 
 113   0.0000       0.525523        14.3002 
 114   0.0000       0.531790        14.4707 
 115   0.0000       0.534593        14.5470 
 116   0.0000       0.545741        14.8504 
 117   0.0000       0.551486        15.0067 
 118   0.0000       0.560663        15.2564 
 119   0.0000       0.576422        15.6852 
 120   0.0000       0.583238        15.8707 
 121   0.0000       0.598631        16.2896 
 122   0.0000       0.600469        16.3396 
 123   0.0000       0.604191        16.4409 
 124   0.0000       0.619012        16.8442 
 125   0.0000       0.622430        16.9372 
 126   0.0000       0.631555        17.1855 
 127   0.0000       0.644155        17.5284 
 128   0.0000       0.653701        17.7881 
 129   0.0000       0.665336        18.1047 
 130   0.0000       0.679116        18.4797 
 131   0.0000       0.683737        18.6054 
 132   0.0000       0.693707        18.8767 
 133   0.0000       0.706058        19.2128 
 134   0.0000       0.708120        19.2689 
 135   0.0000       0.716163        19.4878 
 136   0.0000       0.724013        19.7014 
 137   0.0000       0.727114        19.7858 
 138   0.0000       0.730734        19.8843 
 139   0.0000       0.740717        20.1559 
 140   0.0000       0.743117        20.2212 
 141   0.0000       0.744937        20.2708 
 142   0.0000       0.754138        20.5211 
 143   0.0000       0.758594        20.6424 
 144   0.0000       0.765366        20.8267 
 145   0.0000       0.771586        20.9959 
 146   0.0000       0.772340        21.0164 
 147   0.0000       0.777686        21.1619 
 148   0.0000       0.786267        21.3954 
 149   0.0000       0.788062        21.4442 
 150   0.0000       0.793045        21.5799 
 151   0.0000       0.795015        21.6335 
 152   0.0000       0.796472        21.6731 
 153   0.0000       0.800118        21.7723 
 154   0.0000       0.804654        21.8957 
 155   0.0000       0.810060        22.0428 
 156   0.0000       0.814136        22.1538 
 157   0.0000       0.816822        22.2269 
 158   0.0000       0.823655        22.4128 
 159   0.0000       0.827118        22.5070 
 160   0.0000       0.834464        22.7069 
 161   0.0000       0.838352        22.8127 
 162   0.0000       0.842340        22.9212 
 163   0.0000       0.852132        23.1877 
 164   0.0000       0.860600        23.4181 
 165   0.0000       0.867596        23.6085 
 166   0.0000       0.872236        23.7347 
 167   0.0000       0.887286        24.1443 
 168   0.0000       0.897777        24.4298 
 169   0.0000       0.903061        24.5735 
 170   0.0000       0.912617        24.8336 
 171   0.0000       0.922947        25.1147 
 172   0.0000       0.933125        25.3916 
 173   0.0000       0.944322        25.6963 
 174   0.0000       0.960267        26.1302 
 175   0.0000       0.980294        26.6751 
 176   0.0000       0.993274        27.0284 
 177   0.0000       1.005675        27.3658 
 178   0.0000       1.023082        27.8395 
 179   0.0000       1.031058        28.0565 
 180   0.0000       1.075448        29.2644 
 181   0.0000       1.079848        29.3842 
 182   0.0000       1.097581        29.8667 
 183   0.0000       1.102160        29.9913 
 184   0.0000       1.121909        30.5287 
 185   0.0000       1.140637        31.0383 
 186   0.0000       1.150843        31.3160 
 187   0.0000       1.172113        31.8948 
 188   0.0000       1.182473        32.1767 
 189   0.0000       1.189984        32.3811 
 190   0.0000       1.219027        33.1714 
 191   0.0000       1.235184        33.6111 
 192   0.0000       1.242531        33.8110 
 193   0.0000       1.262696        34.3597 
 194   0.0000       1.294332        35.2206 
 195   0.0000       1.308185        35.5975 
 196   0.0000       1.320313        35.9275 
 197   0.0000       1.342042        36.5188 
 198   0.0000       1.352845        36.8128 
 199   0.0000       1.369684        37.2710 
 200   0.0000       1.383914        37.6582 
 201   0.0000       1.395174        37.9646 
 202   0.0000       1.414573        38.4925 
 203   0.0000       1.432064        38.9684 
 204   0.0000       1.450047        39.4578 
 205   0.0000       1.465193        39.8699 
 206   0.0000       1.469520        39.9877 
 207   0.0000       1.491542        40.5869 
 208   0.0000       1.506598        40.9966 
 209   0.0000       1.557692        42.3870 
 210   0.0000       1.579625        42.9838 
 211   0.0000       1.613754        43.9125 
 212   0.0000       1.622672        44.1552 
 213   0.0000       1.625784        44.2398 
 214   0.0000       1.642567        44.6965 
 215   0.0000       1.673510        45.5385 
 216   0.0000       1.702746        46.3341 
 217   0.0000       1.720379        46.8139 
 218   0.0000       1.762277        47.9540 
 219   0.0000       1.766171        48.0600 
 220   0.0000       1.798768        48.9470 
 221   0.0000       1.806063        49.1455 
 222   0.0000       1.810190        49.2578 
 223   0.0000       1.826166        49.6925 
 224   0.0000       1.835088        49.9353 
 225   0.0000       1.840751        50.0894 
 226   0.0000       1.851114        50.3714 
 227   0.0000       1.858982        50.5855 
 228   0.0000       1.874036        50.9951 
 229   0.0000       1.875717        51.0409 
 230   0.0000       1.880062        51.1591 
 231   0.0000       1.887634        51.3651 
 232   0.0000       1.893304        51.5194 
 233   0.0000       1.899267        51.6817 
 234   0.0000       1.903154        51.7874 
 235   0.0000       1.916256        52.1440 
 236   0.0000       1.926448        52.4213 
 237   0.0000       1.936598        52.6975 
 238   0.0000       1.937960        52.7346 
 239   0.0000       1.943923        52.8968 
 240   0.0000       1.950819        53.0845 
 241   0.0000       1.954810        53.1931 
 242   0.0000       1.965586        53.4863 
 243   0.0000       1.968442        53.5640 
 244   0.0000       1.977681        53.8154 
 245   0.0000       1.993085        54.2346 
 246   0.0000       1.994637        54.2768 
 247   0.0000       1.998585        54.3843 
 248   0.0000       2.010810        54.7169 
 249   0.0000       2.013028        54.7773 
 250   0.0000       2.026824        55.1527 
 251   0.0000       2.048281        55.7366 
 252   0.0000       2.058752        56.0215 
 253   0.0000       2.073563        56.4245 
 254   0.0000       2.077848        56.5411 
 255   0.0000       2.085356        56.7454 
 256   0.0000       2.102850        57.2215 
 257   0.0000       2.134890        58.0933 
 258   0.0000       2.144829        58.3638 
 259   0.0000       2.146712        58.4150 
 260   0.0000       2.159277        58.7569 
 261   0.0000       2.188011        59.5388 
 262   0.0000       2.196230        59.7625 
 263   0.0000       2.210637        60.1545 
 264   0.0000       2.220130        60.4128 
 265   0.0000       2.231792        60.7302 
 266   0.0000       2.254520        61.3486 
 267   0.0000       2.264603        61.6230 
 268   0.0000       2.283395        62.1343 
 269   0.0000       2.312439        62.9247 
 270   0.0000       2.326795        63.3153 
 271   0.0000       2.360548        64.2338 
 272   0.0000       2.373484        64.5858 
 273   0.0000       2.403627        65.4060 
 274   0.0000       2.406375        65.4808 
 275   0.0000       2.412618        65.6507 
 276   0.0000       2.440314        66.4043 
 277   0.0000       2.455861        66.8274 
 278   0.0000       2.477996        67.4297 
 279   0.0000       2.493658        67.8559 
 280   0.0000       2.507017        68.2194 
 281   0.0000       2.515272        68.4440 
 282   0.0000       2.528556        68.8055 
 283   0.0000       2.542631        69.1885 
 284   0.0000       2.548147        69.3386 
 285   0.0000       2.575006        70.0695 
 286   0.0000       2.580898        70.2298 
 287   0.0000       2.590804        70.4994 
 288   0.0000       2.610686        71.0404 
 289   0.0000       2.614628        71.1477 
 290   0.0000       2.637669        71.7746 
 291   0.0000       2.678188        72.8772 
 292   0.0000       2.694612        73.3241 
 293   0.0000       2.709088        73.7180 
 294   0.0000       2.730058        74.2886 
 295   0.0000       2.739240        74.5385 
 296   0.0000       2.745044        74.6964 
 297   0.0000       2.783674        75.7476 
 298   0.0000       2.799551        76.1797 
 299   0.0000       2.808060        76.4112 
 300   0.0000       2.835579        77.1600 
 301   0.0000       2.890047        78.6422 
 302   0.0000       2.892641        78.7127 
 303   0.0000       2.930010        79.7296 
 304   0.0000       2.948597        80.2354 
 305   0.0000       2.978086        81.0378 
 306   0.0000       2.987124        81.2838 
 307   0.0000       3.034927        82.5846 
 308   0.0000       3.047801        82.9349 
 309   0.0000       3.050693        83.0136 
 310   0.0000       3.067216        83.4632 
 311   0.0000       3.092236        84.1440 
 312   0.0000       3.115666        84.7816 
 313   0.0000       3.139667        85.4347 
 314   0.0000       3.151365        85.7530 
 315   0.0000       3.191628        86.8486 
 316   0.0000       3.200459        87.0889 
 317   0.0000       3.209279        87.3289 
 318   0.0000       3.236558        88.0712 
 319   0.0000       3.263562        88.8060 
 320   0.0000       3.376955        91.8916 
 321   0.0000       3.443801        93.7106 

                    ********************************
                    * MULLIKEN POPULATION ANALYSIS *
                    ********************************

-----------------------
MULLIKEN ATOMIC CHARGES
-----------------------
   0 S :    0.113189
   1 C :   -0.134245
   2 C :   -0.072894
   3 C :    0.002535
   4 C :   -0.160376
   5 H :    0.050708
   6 C :    0.035245
   7 H :    0.022718
   8 H :    0.039775
   9 C :   -0.008713
  10 H :    0.027210
  11 H :    0.012723
  12 C :   -0.047296
  13 H :    0.047894
  14 H :    0.007213
  15 H :    0.014799
  16 S :    0.091625
  17 C :   -0.066540
  18 C :   -0.037721
  19 C :   -0.053155
  20 C :   -0.167570
  21 H :    0.022285
  22 C :    0.105036
  23 H :    0.027065
  24 H :    0.018556
  25 C :   -0.123799
  26 H :    0.029639
  27 H :    0.035371
  28 C :   -0.022754
  29 H :    0.032063
  30 H :    0.023891
  31 H :    0.031556
  32 H :    0.053480
  33 H :    0.050488
Sum of atomic charges:   -0.0000000

--------------------------------
MULLIKEN REDUCED ORBITAL CHARGES
--------------------------------
  0 S s       :     5.851000  s :     5.851000
      pz      :     3.175072  p :     9.935476
      px      :     3.437224
      py      :     3.323180
      dz2     :     0.036845  d :     0.100335
      dxz     :     0.014153
      dyz     :     0.013562
      dx2y2   :     0.014811
      dxy     :     0.020963
  1 C s       :     3.190701  s :     3.190701
      pz      :     0.832760  p :     2.908109
      px      :     1.056028
      py      :     1.019321
      dz2     :     0.010632  d :     0.035435
      dxz     :     0.006960
      dyz     :     0.007472
      dx2y2   :     0.005214
      dxy     :     0.005157
  2 C s       :     3.070436  s :     3.070436
      pz      :     0.985074  p :     2.956059
      px      :     0.981466
      py      :     0.989520
      dz2     :     0.009970  d :     0.046399
      dxz     :     0.010349
      dyz     :     0.012235
      dx2y2   :     0.008461
      dxy     :     0.005383
  3 C s       :     3.199441  s :     3.199441
      pz      :     0.909139  p :     2.764846
      px      :     0.918743
      py      :     0.936964
      dz2     :     0.008705  d :     0.033177
      dxz     :     0.008329
      dyz     :     0.007637
      dx2y2   :     0.003591
      dxy     :     0.004916
  4 C s       :     3.068431  s :     3.068431
      pz      :     1.019523  p :     3.047344
      px      :     1.027846
      py      :     0.999975
      dz2     :     0.013318  d :     0.044601
      dxz     :     0.007962
      dyz     :     0.009947
      dx2y2   :     0.006168
      dxy     :     0.007206
  5 H s       :     0.927975  s :     0.927975
      pz      :     0.002914  p :     0.021317
      px      :     0.010152
      py      :     0.008251
  6 C s       :     2.986435  s :     2.986435
      pz      :     0.939979  p :     2.941632
      px      :     0.996573
      py      :     1.005080
      dz2     :     0.009651  d :     0.036688
      dxz     :     0.008710
      dyz     :     0.004180
      dx2y2   :     0.008777
      dxy     :     0.005370
  7 H s       :     0.953552  s :     0.953552
      pz      :     0.005219  p :     0.023730
      px      :     0.005214
      py      :     0.013297
  8 H s       :     0.939164  s :     0.939164
      pz      :     0.006521  p :     0.021061
      px      :     0.009815
      py      :     0.004724
  9 C s       :     2.990092  s :     2.990092
      pz      :     0.996345  p :     2.978428
      px      :     0.990707
      py      :     0.991376
      dz2     :     0.010531  d :     0.040193
      dxz     :     0.004359
      dyz     :     0.005236
      dx2y2   :     0.009279
      dxy     :     0.010788
 10 H s       :     0.949385  s :     0.949385
      pz      :     0.014574  p :     0.023405
      px      :     0.004366
      py      :     0.004464
 11 H s       :     0.963428  s :     0.963428
      pz      :     0.006335  p :     0.023849
      px      :     0.011038
      py      :     0.006476
 12 C s       :     2.981501  s :     2.981501
      pz      :     1.024151  p :     3.035177
      px      :     1.038276
      py      :     0.972750
      dz2     :     0.008011  d :     0.030618
      dxz     :     0.002953
      dyz     :     0.005997
      dx2y2   :     0.004805
      dxy     :     0.008853
 13 H s       :     0.928186  s :     0.928186
      pz      :     0.014711  p :     0.023920
      px      :     0.005405
      py      :     0.003804
 14 H s       :     0.966166  s :     0.966166
      pz      :     0.007651  p :     0.026622
      px      :     0.010395
      py      :     0.008576
 15 H s       :     0.960885  s :     0.960885
      pz      :     0.005563  p :     0.024316
      px      :     0.012425
      py      :     0.006328
 16 S s       :     5.848657  s :     5.848657
      pz      :     3.267412  p :     9.954519
      px      :     3.332648
      py      :     3.354460
      dz2     :     0.019603  d :     0.105199
      dxz     :     0.030678
      dyz     :     0.013200
      dx2y2   :     0.015250
      dxy     :     0.026468
 17 C s       :     3.144586  s :     3.144586
      pz      :     0.963834  p :     2.886760
      px      :     0.928541
      py      :     0.994385
      dz2     :     0.004360  d :     0.035193
      dxz     :     0.010631
      dyz     :     0.004731
      dx2y2   :     0.006204
      dxy     :     0.009268
 18 C s       :     3.173836  s :     3.173836
      pz      :     0.983499  p :     2.828768
      px      :     0.851480
      py      :     0.993789
      dz2     :     0.006498  d :     0.035117
      dxz     :     0.008035
      dyz     :     0.005046
      dx2y2   :     0.008406
      dxy     :     0.007131
 19 C s       :     3.051645  s :     3.051645
      pz      :     0.982722  p :     2.956867
      px      :     0.993910
      py      :     0.980234
      dz2     :     0.008344  d :     0.044643
      dxz     :     0.010643
      dyz     :     0.005812
      dx2y2   :     0.009817
      dxy     :     0.010028
 20 C s       :     3.080454  s :     3.080454
      pz      :     1.024632  p :     3.042868
      px      :     0.974875
      py      :     1.043361
      dz2     :     0.006787  d :     0.044248
      dxz     :     0.013712
      dyz     :     0.005893
      dx2y2   :     0.006536
      dxy     :     0.011320
 21 H s       :     0.954814  s :     0.954814
      pz      :     0.006068  p :     0.022901
      px      :     0.011792
      py      :     0.005041
 22 C s       :     2.939822  s :     2.939822
      pz      :     0.992468  p :     2.919334
      px      :     0.964863
      py      :     0.962004
      dz2     :     0.008112  d :     0.035807
      dxz     :     0.005318
      dyz     :     0.007186
      dx2y2   :     0.006527
      dxy     :     0.008664
 23 H s       :     0.949342  s :     0.949342
      pz      :     0.004418  p :     0.023593
      px      :     0.007451
      py      :     0.011725
 24 H s       :     0.958484  s :     0.958484
      pz      :     0.012669  p :     0.022960
      px      :     0.003652
      py      :     0.006639
 25 C s       :     3.078401  s :     3.078401
      pz      :     1.005800  p :     3.008300
      px      :     0.992687
      py      :     1.009814
      dz2     :     0.010747  d :     0.037097
      dxz     :     0.004868
      dyz     :     0.005793
      dx2y2   :     0.005836
      dxy     :     0.009853
 26 H s       :     0.947579  s :     0.947579
      pz      :     0.004477  p :     0.022782
      px      :     0.007468
      py      :     0.010837
 27 H s       :     0.942359  s :     0.942359
      pz      :     0.013248  p :     0.022270
      px      :     0.004178
      py      :     0.004844
 28 C s       :     2.994697  s :     2.994697
      pz      :     1.022157  p :     3.000480
      px      :     0.982821
      py      :     0.995503
      dz2     :     0.005377  d :     0.027577
      dxz     :     0.002986
      dyz     :     0.006796
      dx2y2   :     0.003973
      dxy     :     0.008445
 29 H s       :     0.944919  s :     0.944919
      pz      :     0.008488  p :     0.023019
      px      :     0.004766
      py      :     0.009764
 30 H s       :     0.949806  s :     0.949806
      pz      :     0.005467  p :     0.026303
      px      :     0.009697
      py      :     0.011139
 31 H s       :     0.945783  s :     0.945783
      pz      :     0.011633  p :     0.022661
      px      :     0.004135
      py      :     0.006893
 32 H s       :     0.923895  s :     0.923895
      pz      :     0.005450  p :     0.022626
      px      :     0.007428
      py      :     0.009748
 33 H s       :     0.924816  s :     0.924816
      pz      :     0.010542  p :     0.024696
      px      :     0.003715
      py      :     0.010439


                     *******************************
                     * LOEWDIN POPULATION ANALYSIS *
                     *******************************

----------------------
LOEWDIN ATOMIC CHARGES
----------------------
   0 S :    0.387598
   1 C :   -0.189403
   2 C :   -0.071681
   3 C :   -0.068955
   4 C :   -0.188840
   5 H :    0.047914
   6 C :   -0.036462
   7 H :    0.035770
   8 H :    0.035636
   9 C :   -0.035515
  10 H :    0.028675
  11 H :    0.019660
  12 C :   -0.067221
  13 H :    0.028642
  14 H :    0.015214
  15 H :    0.025836
  16 S :    0.393687
  17 C :   -0.177335
  18 C :   -0.075312
  19 C :   -0.054631
  20 C :   -0.199304
  21 H :    0.033592
  22 C :   -0.023779
  23 H :    0.029576
  24 H :    0.028222
  25 C :   -0.039493
  26 H :    0.026824
  27 H :    0.022528
  28 C :   -0.060627
  29 H :    0.028742
  30 H :    0.009453
  31 H :    0.028866
  32 H :    0.034095
  33 H :    0.028026

-------------------------------
LOEWDIN REDUCED ORBITAL CHARGES
-------------------------------
  0 S s       :     5.527462  s :     5.527462
      pz      :     3.200876  p :     9.961459
      px      :     3.436731
      py      :     3.323852
      dz2     :     0.046936  d :     0.123480
      dxz     :     0.015891
      dyz     :     0.015921
      dx2y2   :     0.017390
      dxy     :     0.027342
  1 C s       :     2.929581  s :     2.929581
      pz      :     0.990412  p :     3.175224
      px      :     1.102675
      py      :     1.082136
      dz2     :     0.026048  d :     0.084598
      dxz     :     0.018018
      dyz     :     0.017777
      dx2y2   :     0.009624
      dxy     :     0.013132
  2 C s       :     2.851843  s :     2.851843
      pz      :     1.042552  p :     3.103765
      px      :     1.035079
      py      :     1.026133
      dz2     :     0.025981  d :     0.116074
      dxz     :     0.027023
      dyz     :     0.029635
      dx2y2   :     0.018194
      dxy     :     0.015240
  3 C s       :     2.884986  s :     2.884986
      pz      :     1.039859  p :     3.098173
      px      :     1.029507
      py      :     1.028806
      dz2     :     0.025231  d :     0.085796
      dxz     :     0.022635
      dyz     :     0.019662
      dx2y2   :     0.006544
      dxy     :     0.011725
  4 C s       :     2.911918  s :     2.911918
      pz      :     1.088780  p :     3.171033
      px      :     1.047087
      py      :     1.035165
      dz2     :     0.033532  d :     0.105890
      dxz     :     0.020369
      dyz     :     0.023788
      dx2y2   :     0.012717
      dxy     :     0.015484
  5 H s       :     0.891943  s :     0.891943
      pz      :     0.008869  p :     0.060143
      px      :     0.027967
      py      :     0.023307
  6 C s       :     2.830609  s :     2.830609
      pz      :     1.013652  p :     3.113995
      px      :     1.045783
      py      :     1.054560
      dz2     :     0.025484  d :     0.091858
      dxz     :     0.022363
      dyz     :     0.009335
      dx2y2   :     0.020472
      dxy     :     0.014204
  7 H s       :     0.896967  s :     0.896967
      pz      :     0.014577  p :     0.067263
      px      :     0.015123
      py      :     0.037564
  8 H s       :     0.902287  s :     0.902287
      pz      :     0.019754  p :     0.062076
      px      :     0.028635
      py      :     0.013688
  9 C s       :     2.808132  s :     2.808132
      pz      :     1.053580  p :     3.127562
      px      :     1.040853
      py      :     1.033128
      dz2     :     0.027118  d :     0.099822
      dxz     :     0.010711
      dyz     :     0.012759
      dx2y2   :     0.022892
      dxy     :     0.026342
 10 H s       :     0.902853  s :     0.902853
      pz      :     0.040313  p :     0.068471
      px      :     0.013556
      py      :     0.014602
 11 H s       :     0.909549  s :     0.909549
      pz      :     0.017984  p :     0.070791
      px      :     0.032198
      py      :     0.020609
 12 C s       :     2.814811  s :     2.814811
      pz      :     1.065075  p :     3.174290
      px      :     1.082070
      py      :     1.027145
      dz2     :     0.021326  d :     0.078120
      dxz     :     0.007375
      dyz     :     0.014556
      dx2y2   :     0.013719
      dxy     :     0.021143
 13 H s       :     0.904620  s :     0.904620
      pz      :     0.039954  p :     0.066738
      px      :     0.014090
      py      :     0.012693
 14 H s       :     0.908354  s :     0.908354
      pz      :     0.021935  p :     0.076432
      px      :     0.027879
      py      :     0.026619
 15 H s       :     0.907688  s :     0.907688
      pz      :     0.014813  p :     0.066476
      px      :     0.032616
      py      :     0.019046
 16 S s       :     5.515401  s :     5.515401
      pz      :     3.256384  p :     9.962037
      px      :     3.367898
      py      :     3.337755
      dz2     :     0.023182  d :     0.128875
      dxz     :     0.038660
      dyz     :     0.017861
      dx2y2   :     0.016661
      dxy     :     0.032511
 17 C s       :     2.923791  s :     2.923791
      pz      :     1.052077  p :     3.170453
      px      :     1.059986
      py      :     1.058390
      dz2     :     0.009727  d :     0.083090
      dxz     :     0.025128
      dyz     :     0.009884
      dx2y2   :     0.016529
      dxy     :     0.021822
 18 C s       :     2.867726  s :     2.867726
      pz      :     1.031172  p :     3.115626
      px      :     1.057015
      py      :     1.027439
      dz2     :     0.016047  d :     0.091959
      dxz     :     0.020660
      dyz     :     0.013052
      dx2y2   :     0.023937
      dxy     :     0.018264
 19 C s       :     2.859335  s :     2.859335
      pz      :     1.023056  p :     3.084825
      px      :     1.055194
      py      :     1.006576
      dz2     :     0.019578  d :     0.110471
      dxz     :     0.027385
      dyz     :     0.014565
      dx2y2   :     0.026564
      dxy     :     0.022379
 20 C s       :     2.902639  s :     2.902639
      pz      :     1.059645  p :     3.189003
      px      :     1.058514
      py      :     1.070844
      dz2     :     0.016676  d :     0.107662
      dxz     :     0.033844
      dyz     :     0.013311
      dx2y2   :     0.016990
      dxy     :     0.026842
 21 H s       :     0.899896  s :     0.899896
      pz      :     0.018098  p :     0.066511
      px      :     0.032990
      py      :     0.015423
 22 C s       :     2.821909  s :     2.821909
      pz      :     1.052316  p :     3.111669
      px      :     1.016028
      py      :     1.043325
      dz2     :     0.019897  d :     0.090201
      dxz     :     0.013055
      dyz     :     0.019476
      dx2y2   :     0.015598
      dxy     :     0.022175
 23 H s       :     0.900912  s :     0.900912
      pz      :     0.013232  p :     0.069512
      px      :     0.022430
      py      :     0.033850
 24 H s       :     0.903180  s :     0.903180
      pz      :     0.036532  p :     0.068597
      px      :     0.012899
      py      :     0.019166
 25 C s       :     2.835741  s :     2.835741
      pz      :     1.044549  p :     3.115110
      px      :     1.023900
      py      :     1.046660
      dz2     :     0.025616  d :     0.088642
      dxz     :     0.010918
      dyz     :     0.015345
      dx2y2   :     0.013416
      dxy     :     0.023347
 26 H s       :     0.904919  s :     0.904919
      pz      :     0.013143  p :     0.068258
      px      :     0.023124
      py      :     0.031991
 27 H s       :     0.910010  s :     0.910010
      pz      :     0.038625  p :     0.067462
      px      :     0.013989
      py      :     0.014848
 28 C s       :     2.835653  s :     2.835653
      pz      :     1.064397  p :     3.155341
      px      :     1.035761
      py      :     1.055183
      dz2     :     0.013427  d :     0.069633
      dxz     :     0.006781
      dyz     :     0.017719
      dx2y2   :     0.010453
      dxy     :     0.021253
 29 H s       :     0.907323  s :     0.907323
      pz      :     0.022734  p :     0.063935
      px      :     0.014611
      py      :     0.026590
 30 H s       :     0.912357  s :     0.912357
      pz      :     0.016214  p :     0.078190
      px      :     0.030011
      py      :     0.031965
 31 H s       :     0.908823  s :     0.908823
      pz      :     0.032083  p :     0.062311
      px      :     0.012406
      py      :     0.017822
 32 H s       :     0.896611  s :     0.896611
      pz      :     0.019081  p :     0.069294
      px      :     0.021820
      py      :     0.028394
 33 H s       :     0.894569  s :     0.894569
      pz      :     0.032682  p :     0.077405
      px      :     0.012934
      py      :     0.031788


                      *****************************
                      * MAYER POPULATION ANALYSIS *
                      *****************************

  NA   - Mulliken gross atomic population
  ZA   - Total nuclear charge
  QA   - Mulliken gross atomic charge
  VA   - Mayer's total valence
  BVA  - Mayer's bonded valence
  FA   - Mayer's free valence

  ATOM       NA         ZA         QA         VA         BVA        FA
  0 S     15.8868    16.0000     0.1132     2.4511     2.4511    -0.0000
  1 C      6.1342     6.0000    -0.1342     3.8503     3.8503    -0.0000
  2 C      6.0729     6.0000    -0.0729     4.0070     4.0070    -0.0000
  3 C      5.9975     6.0000     0.0025     3.9038     3.9038     0.0000
  4 C      6.1604     6.0000    -0.1604     3.9195     3.9195     0.0000
  5 H      0.9493     1.0000     0.0507     0.9946     0.9946     0.0000
  6 C      5.9648     6.0000     0.0352     3.9708     3.9708    -0.0000
  7 H      0.9773     1.0000     0.0227     0.9811     0.9811    -0.0000
  8 H      0.9602     1.0000     0.0398     0.9864     0.9864    -0.0000
  9 C      6.0087     6.0000    -0.0087     4.1050     4.1050    -0.0000
 10 H      0.9728     1.0000     0.0272     0.9778     0.9778     0.0000
 11 H      0.9873     1.0000     0.0127     0.9804     0.9804    -0.0000
 12 C      6.0473     6.0000    -0.0473     3.9940     3.9940     0.0000
 13 H      0.9521     1.0000     0.0479     0.9967     0.9967     0.0000
 14 H      0.9928     1.0000     0.0072     0.9916     0.9916    -0.0000
 15 H      0.9852     1.0000     0.0148     0.9858     0.9858     0.0000
 16 S     15.9084    16.0000     0.0916     2.4648     2.4648    -0.0000
 17 C      6.0665     6.0000    -0.0665     3.8281     3.8281     0.0000
 18 C      6.0377     6.0000    -0.0377     3.9496     3.9496     0.0000
 19 C      6.0532     6.0000    -0.0532     4.0416     4.0416    -0.0000
 20 C      6.1676     6.0000    -0.1676     3.9310     3.9310    -0.0000
 21 H      0.9777     1.0000     0.0223     0.9960     0.9960    -0.0000
 22 C      5.8950     6.0000     0.1050     3.9366     3.9366    -0.0000
 23 H      0.9729     1.0000     0.0271     0.9870     0.9870     0.0000
 24 H      0.9814     1.0000     0.0186     1.0045     1.0045    -0.0000
 25 C      6.1238     6.0000    -0.1238     4.0874     4.0874     0.0000
 26 H      0.9704     1.0000     0.0296     0.9752     0.9752    -0.0000
 27 H      0.9646     1.0000     0.0354     0.9849     0.9849    -0.0000
 28 C      6.0228     6.0000    -0.0228     4.0001     4.0001     0.0000
 29 H      0.9679     1.0000     0.0321     0.9848     0.9848     0.0000
 30 H      0.9761     1.0000     0.0239     0.9931     0.9931     0.0000
 31 H      0.9684     1.0000     0.0316     0.9888     0.9888     0.0000
 32 H      0.9465     1.0000     0.0535     1.0023     1.0023    -0.0000
 33 H      0.9495     1.0000     0.0505     0.9996     0.9996     0.0000

  Mayer bond orders larger than 0.100000
B(  0-S ,  1-C ) :   1.1119 B(  0-S ,  4-C ) :   1.1493 B(  1-C ,  2-C ) :   1.6570 
B(  1-C , 32-H ) :   0.9622 B(  2-C ,  3-C ) :   1.2070 B(  2-C ,  6-C ) :   1.0107 
B(  3-C ,  4-C ) :   1.6030 B(  3-C ,  5-H ) :   0.9770 B(  4-C , 20-C ) :   1.0251 
B(  6-C ,  7-H ) :   0.9320 B(  6-C ,  8-H ) :   0.9469 B(  6-C ,  9-C ) :   1.0901 
B(  9-C , 10-H ) :   0.9478 B(  9-C , 11-H ) :   0.9498 B(  9-C , 12-C ) :   1.0934 
B( 12-C , 13-H ) :   0.9726 B( 12-C , 14-H ) :   0.9713 B( 12-C , 15-H ) :   0.9681 
B( 16-S , 17-C ) :   1.1525 B( 16-S , 20-C ) :   1.1251 B( 17-C , 18-C ) :   1.6030 
B( 17-C , 33-H ) :   0.9727 B( 18-C , 19-C ) :   1.2483 B( 18-C , 21-H ) :   0.9798 
B( 19-C , 20-C ) :   1.6308 B( 19-C , 22-C ) :   1.0242 B( 22-C , 23-H ) :   0.9368 
B( 22-C , 24-H ) :   0.9388 B( 22-C , 25-C ) :   1.0576 B( 25-C , 26-H ) :   0.9533 
B( 25-C , 27-H ) :   0.9628 B( 25-C , 28-C ) :   1.0843 B( 28-C , 29-H ) :   0.9748 
B( 28-C , 30-H ) :   0.9788 B( 28-C , 31-H ) :   0.9729 

-------
TIMINGS
-------

Total SCF time: 0 days 0 hours 0 min 19 sec 

Total time                  ....      19.789 sec
Sum of individual times     ....      18.924 sec  ( 95.6%)

Fock matrix formation       ....      17.284 sec  ( 87.3%)
  XC integration            ....       1.452 sec  (  8.4% of F)
    Basis function eval.    ....       0.143 sec  (  9.8% of XC)
    Density eval.           ....       0.103 sec  (  7.1% of XC)
    XC-Functional eval.     ....       0.108 sec  (  7.5% of XC)
    XC-Potential eval.      ....       0.120 sec  (  8.3% of XC)
Diagonalization             ....       0.135 sec  (  0.7%)
Density matrix formation    ....       0.023 sec  (  0.1%)
Population analysis         ....       0.057 sec  (  0.3%)
Initial guess               ....       0.167 sec  (  0.8%)
Orbital Transformation      ....       0.000 sec  (  0.0%)
Orbital Orthonormalization  ....       0.000 sec  (  0.0%)
DIIS solution               ....       0.158 sec  (  0.8%)
SOSCF solution              ....       0.128 sec  (  0.6%)
Grid generation             ....       0.973 sec  (  4.9%)


-------------------------------------------------------------------------------
                          DFT DISPERSION CORRECTION                            
                                                                               
                              DFTD3 V3.1  Rev 1                                
                              USING zero damping                               
-------------------------------------------------------------------------------
The omegaB97X-D3 functional is recognized. Fit by Chai et al.
Active option DFTDOPT                   ...         3   

molecular C6(AA) [au] = 14178.757124 


            DFT-D V3
 parameters
 s6 scaling factor         :     1.0000 
 rs6 scaling factor        :     1.2810 
 s8 scaling factor         :     1.0000 
 rs8 scaling factor        :     1.0940 
 Damping factor alpha6     :    14.0000 
 Damping factor alpha8     :    16.0000 
 ad hoc parameters k1-k3   :    16.0000     1.3333    -4.0000 

 Edisp/kcal,au: -8.947549990039  -0.014258827006 
 E6   /kcal   :  -4.108823096 
 E8   /kcal   :  -4.838726894 
 % E8         :  54.078791394 

-------------------------   ----------------
Dispersion correction           -0.014258827
-------------------------   ----------------


-------------------------   --------------------
FINAL SINGLE POINT ENERGY     -1339.877260614897
-------------------------   --------------------


                            ***************************************
                            *     ORCA property calculations      *
                            ***************************************

                                    ---------------------
                                    Active property flags
                                    ---------------------
   (+) Dipole Moment


------------------------------------------------------------------------------
                       ORCA ELECTRIC PROPERTIES CALCULATION
------------------------------------------------------------------------------

Dipole Moment Calculation                       ... on
Quadrupole Moment Calculation                   ... off
Polarizability Calculation                      ... off
GBWName                                         ... config_7814.gbw
Electron density file                           ... config_7814.scfp
The origin for moment calculation is the CENTER OF MASS  = (-165.160585, -57.242199 -149.989405)

-------------
DIPOLE MOMENT
-------------
                                X             Y             Z
Electronic contribution:     23.39423     -10.63679      13.11820
Nuclear contribution   :    -24.05881      10.65970     -13.47144
                        -----------------------------------------
Total Dipole Moment    :     -0.66458       0.02291      -0.35324
                        -----------------------------------------
Magnitude (a.u.)       :      0.75298
Magnitude (Debye)      :      1.91391



--------------------
Rotational spectrum 
--------------------
 
Rotational constants in cm-1:     0.017987     0.009156     0.006848 
Rotational constants in MHz :   539.222870   274.504320   205.298216 

 Dipole components along the rotational axes: 
x,y,z [a.u.] :    -0.208277     0.665158     0.284884 
x,y,z [Debye]:    -0.529397     1.690697     0.724118 

 

Timings for individual modules:

Sum of individual times         ...       20.964 sec (=   0.349 min)
GTO integral calculation        ...        0.799 sec (=   0.013 min)   3.8 %
SCF iterations                  ...       20.165 sec (=   0.336 min)  96.2 %
                             ****ORCA TERMINATED NORMALLY****
TOTAL RUN TIME: 0 days 0 hours 0 minutes 21 seconds 652 msec
