
                                 *****************
                                 * O   R   C   A *
                                 *****************

           --- An Ab Initio, DFT and Semiempirical electronic structure package ---

                  #######################################################
                  #                        -***-                        #
                  #          Department of theory and spectroscopy      #
                  #               Directorship: Frank Neese             #
                  #        Max Planck Institute fuer Kohlenforschung    #
                  #                Kaiser Wilhelm Platz 1               #
                  #                 D-45470 Muelheim/Ruhr               #
                  #                      Germany                        #
                  #                                                     #
                  #                  All rights reserved                #
                  #                        -***-                        #
                  #######################################################


                         Program Version 4.2.1 -  RELEASE  -


 With contributions from (in alphabetic order):
   Daniel Aravena         : Magnetic Suceptibility
   Michael Atanasov       : Ab Initio Ligand Field Theory (pilot matlab implementation)
   Alexander A. Auer      : GIAO ZORA, VPT2
   Ute Becker             : Parallelization
   Giovanni Bistoni       : ED, misc. LED, open-shell LED, HFLD
   Martin Brehm           : Molecular dynamics
   Dmytro Bykov           : SCF Hessian
   Vijay G. Chilkuri      : MRCI spin determinant printing, contributions to CSF-ICE
   Dipayan Datta          : RHF DLPNO-CCSD density
   Achintya Kumar Dutta   : EOM-CC, STEOM-CC
   Dmitry Ganyushin       : Spin-Orbit,Spin-Spin,Magnetic field MRCI
   Miquel Garcia          : C-PCM Hessian, Gaussian charge scheme
   Yang Guo               : DLPNO-NEVPT2, CIM, IAO-localization
   Andreas Hansen         : Spin unrestricted coupled pair/coupled cluster methods
   Benjamin Helmich-Paris : CASSCF linear response (MC-RPA)
   Lee Huntington         : MR-EOM, pCC
   Robert Izsak           : Overlap fitted RIJCOSX, COSX-SCS-MP3, EOM
   Christian Kollmar      : KDIIS, OOCD, Brueckner-CCSD(T), CCSD density
   Simone Kossmann        : Meta GGA functionals, TD-DFT gradient, OOMP2, MP2 Hessian
   Martin Krupicka        : AUTO-CI
   Lucas Lang             : DCDCAS
   Dagmar Lenk            : GEPOL surface, SMD
   Dimitrios Liakos       : Extrapolation schemes; Compound Job, initial MDCI parallelization
   Dimitrios Manganas     : Further ROCIS development; embedding schemes
   Dimitrios Pantazis     : SARC Basis sets
   Taras Petrenko         : DFT Hessian,TD-DFT gradient, ASA, ECA, R-Raman, ABS, FL, XAS/XES, NRVS
   Peter Pinski           : DLPNO-MP2, DLPNO-MP2 Gradient
   Christoph Reimann      : Effective Core Potentials
   Marius Retegan         : Local ZFS, SOC
   Christoph Riplinger    : Optimizer, TS searches, QM/MM, DLPNO-CCSD(T), (RO)-DLPNO pert. Triples
   Tobias Risthaus        : Range-separated hybrids, TD-DFT gradient, RPA, STAB
   Michael Roemelt        : Original ROCIS implementation
   Masaaki Saitow         : Open-shell DLPNO-CCSD energy and density
   Barbara Sandhoefer     : DKH picture change effects
   Avijit Sen             : IP-ROCIS
   Kantharuban Sivalingam : CASSCF convergence, NEVPT2, FIC-MRCI
   Bernardo de Souza      : ESD, SOC TD-DFT
   Georgi Stoychev        : AutoAux, RI-MP2 NMR
   Willem Van den Heuvel  : Paramagnetic NMR
   Boris Wezisla          : Elementary symmetry handling
   Frank Wennmohs         : Technical directorship


 We gratefully acknowledge several colleagues who have allowed us to
 interface, adapt or use parts of their codes:
   Stefan Grimme, W. Hujo, H. Kruse,             : VdW corrections, initial TS optimization,
                  C. Bannwarth                     DFT functionals, gCP, sTDA/sTD-DF
   Ed Valeev, F. Pavosevic, A. Kumar             : LibInt (2-el integral package), F12 methods
   Garnet Chan, S. Sharma, J. Yang, R. Olivares  : DMRG
   Ulf Ekstrom                                   : XCFun DFT Library
   Mihaly Kallay                                 : mrcc  (arbitrary order and MRCC methods)
   Andreas Klamt, Michael Diedenhofen            : otool_cosmo (COSMO solvation model)
   Jiri Pittner, Ondrej Demel                    : Mk-CCSD
   Frank Weinhold                                : gennbo (NPA and NBO analysis)
   Christopher J. Cramer and Donald G. Truhlar   : smd solvation model
   Lars Goerigk                                  : TD-DFT with DH, B97 family of functionals
   V. Asgeirsson, H. Jonsson                     : NEB implementation
   FAccTs GmbH                                   : IRC, NEB, NEB-TS, Multilevel, MM, QM/MM, CI optimization
   S Lehtola, MJT Oliveira, MAL Marques          : LibXC Library


 Your calculation uses the libint2 library for the computation of 2-el integrals
 For citations please refer to: http://libint.valeyev.net

 Your ORCA version has been built with support for libXC version: 4.2.3
 For citations please refer to: https://tddft.org/programs/libxc/

 This ORCA versions uses:
   CBLAS   interface :  Fast vector & matrix operations
   LAPACKE interface :  Fast linear algebra routines
   SCALAPACK package :  Parallel linear algebra routines


Your calculation utilizes the atom-pairwise dispersion correction
with the zero-damping scheme (D30)
Cite in your paper:
S.Grimme, J.Antony, S.Ehrlich and H.Krieg, J.Chem.Phys., 132, (2010), 154104 
   

XCFun DFT library Copyright 2009-2010 Ulf Ekstrom and contributors.
See http://admol.org/xcfun for more information. This is free soft-
ware; see the source code for copying conditions. There is ABSOLUTELY
NO WARRANTY; not even for MERCHANTABILITY or FITNESS FOR A PARTICULAR
PURPOSE. For details see the documentation. Scientific users of this 
library should cite U. Ekstrom, L. Visscher, R. Bast, A. J. Thorvald-
sen and K. Ruud; J.Chem.Theor.Comp. 2010, DOI: 10.1021/ct100117s
XCFun Version 0.99 
----- Orbital basis set information -----
Your calculation utilizes the basis: def2-SVP
   F. Weigend and R. Ahlrichs, Phys. Chem. Chem. Phys. 7, 3297 (2005).

================================================================================
                                        WARNINGS
                       Please study these warnings very carefully!
================================================================================


INFO   : the flag for use of LIBINT has been found!

================================================================================
                                       INPUT FILE
================================================================================
NAME = config_1434.inp
|  1> ! wB97X-D3 SP def2-SVP
|  2> %pal
|  3> nprocs 24
|  4> end
|  5> 
|  6> * xyz 0 1
|  7> S 	 -40.5017 	 10.4499 	 25.06 	 
|  8> C 	 -40.3984 	 11.6424 	 26.3762 	 
|  9> C 	 -39.4829 	 11.2331 	 27.2908 	 
| 10> C 	 -38.9597 	 9.9222 	 27.0658 	 
| 11> C 	 -39.3676 	 9.33878 	 25.831 	 
| 12> H 	 -38.2883 	 9.33188 	 27.7971 	 
| 13> C 	 -39.1189 	 12.0002 	 28.5269 	 
| 14> H 	 -39.271 	 11.2642 	 29.3714 	 
| 15> H 	 -39.8978 	 12.7613 	 28.5827 	 
| 16> C 	 -37.7141 	 12.6186 	 28.4506 	 
| 17> H 	 -37.0638 	 11.851 	 28.0423 	 
| 18> H 	 -37.5474 	 13.382 	 27.7013 	 
| 19> C 	 -37.1416 	 13.1337 	 29.7902 	 
| 20> H 	 -36.2537 	 13.7549 	 29.6381 	 
| 21> H 	 -37.786 	 13.8171 	 30.3156 	 
| 22> H 	 -36.9471 	 12.2164 	 30.4446 	 
| 23> S 	 -38.255 	 7.62981 	 23.9474 	 
| 24> C 	 -38.5075 	 5.93532 	 24.0991 	 
| 25> C 	 -39.3937 	 5.63663 	 25.0951 	 
| 26> C 	 -39.6754 	 6.76654 	 25.9263 	 
| 27> C 	 -39.2179 	 7.94399 	 25.3504 	 
| 28> H 	 -39.7304 	 4.59415 	 25.2561 	 
| 29> C 	 -40.5334 	 6.6703 	 27.1574 	 
| 30> H 	 -40.3926 	 7.62263 	 27.7144 	 
| 31> H 	 -40.0174 	 6.04434 	 27.7804 	 
| 32> C 	 -42.0425 	 6.39918 	 27.0819 	 
| 33> H 	 -42.5236 	 7.07532 	 26.4103 	 
| 34> H 	 -42.4604 	 6.41691 	 28.1175 	 
| 35> C 	 -42.2061 	 4.95363 	 26.5692 	 
| 36> H 	 -43.15 	 4.45677 	 26.6087 	 
| 37> H 	 -41.6194 	 4.22954 	 27.1661 	 
| 38> H 	 -41.9668 	 4.78113 	 25.5146 	 
| 39> H 	 -41.0236 	 12.5107 	 26.2852 	 
| 40> H 	 -37.982 	 5.10896 	 23.5381 	 
| 41> *
| 42> 
| 43>                          ****END OF INPUT****
================================================================================

                       ****************************
                       * Single Point Calculation *
                       ****************************

---------------------------------
CARTESIAN COORDINATES (ANGSTROEM)
---------------------------------
  S    -40.501700   10.449900   25.060000
  C    -40.398400   11.642400   26.376200
  C    -39.482900   11.233100   27.290800
  C    -38.959700    9.922200   27.065800
  C    -39.367600    9.338780   25.831000
  H    -38.288300    9.331880   27.797100
  C    -39.118900   12.000200   28.526900
  H    -39.271000   11.264200   29.371400
  H    -39.897800   12.761300   28.582700
  C    -37.714100   12.618600   28.450600
  H    -37.063800   11.851000   28.042300
  H    -37.547400   13.382000   27.701300
  C    -37.141600   13.133700   29.790200
  H    -36.253700   13.754900   29.638100
  H    -37.786000   13.817100   30.315600
  H    -36.947100   12.216400   30.444600
  S    -38.255000    7.629810   23.947400
  C    -38.507500    5.935320   24.099100
  C    -39.393700    5.636630   25.095100
  C    -39.675400    6.766540   25.926300
  C    -39.217900    7.943990   25.350400
  H    -39.730400    4.594150   25.256100
  C    -40.533400    6.670300   27.157400
  H    -40.392600    7.622630   27.714400
  H    -40.017400    6.044340   27.780400
  C    -42.042500    6.399180   27.081900
  H    -42.523600    7.075320   26.410300
  H    -42.460400    6.416910   28.117500
  C    -42.206100    4.953630   26.569200
  H    -43.150000    4.456770   26.608700
  H    -41.619400    4.229540   27.166100
  H    -41.966800    4.781130   25.514600
  H    -41.023600   12.510700   26.285200
  H    -37.982000    5.108960   23.538100

----------------------------
CARTESIAN COORDINATES (A.U.)
----------------------------
  NO LB      ZA    FRAG     MASS         X           Y           Z
   0 S    16.0000    0    32.060  -76.537121   19.747449   47.356537
   1 C     6.0000    0    12.011  -76.341912   22.000948   49.843794
   2 C     6.0000    0    12.011  -74.611868   21.227483   51.572138
   3 C     6.0000    0    12.011  -73.623163   18.750241   51.146950
   4 C     6.0000    0    12.011  -74.393983   17.647737   48.813516
   5 H     1.0000    0     1.008  -72.354401   17.634698   52.528906
   6 C     6.0000    0    12.011  -73.924008   22.677092   53.908028
   7 H     1.0000    0     1.008  -74.211435   21.286253   55.503902
   8 H     1.0000    0     1.008  -75.395915   24.115362   54.013475
   9 C     6.0000    0    12.011  -71.269320   23.845698   53.763842
  10 H     1.0000    0     1.008  -70.040431   22.395144   52.992267
  11 H     1.0000    0     1.008  -70.954303   25.288315   52.347871
  12 C     6.0000    0    12.011  -70.187452   24.819096   56.295319
  13 H     1.0000    0     1.008  -68.509564   25.992994   56.007892
  14 H     1.0000    0     1.008  -71.405192   26.110535   57.288182
  15 H     1.0000    0     1.008  -69.819900   23.085650   57.531956
  16 S    16.0000    0    32.060  -72.291473   14.418251   45.254028
  17 C     6.0000    0    12.011  -72.768629   11.216129   45.540699
  18 C     6.0000    0    12.011  -74.443304   10.651687   47.422866
  19 C     6.0000    0    12.011  -74.975640   12.786907   48.993607
  20 C     6.0000    0    12.011  -74.111091   15.011966   47.905313
  21 H     1.0000    0     1.008  -75.079575    8.681685   47.727112
  22 C     6.0000    0    12.011  -76.597025   12.605040   51.320049
  23 H     1.0000    0     1.008  -76.330952   14.404683   52.372626
  24 H     1.0000    0     1.008  -75.621927   11.422147   52.497348
  25 C     6.0000    0    12.011  -79.448811   12.092698   51.177374
  26 H     1.0000    0     1.008  -80.357958   13.370417   49.908234
  27 H     1.0000    0     1.008  -80.238528   12.126203   53.134375
  28 C     6.0000    0    12.011  -79.757970    9.361004   50.208512
  29 H     1.0000    0     1.008  -81.541683    8.422075   50.283156
  30 H     1.0000    0     1.008  -78.649268    7.992672   51.336489
  31 H     1.0000    0     1.008  -79.305759    9.035026   48.215606
  32 H     1.0000    0     1.008  -77.523369   23.641797   49.671829
  33 H     1.0000    0     1.008  -71.775578    9.654535   44.480563

--------------------------------
INTERNAL COORDINATES (ANGSTROEM)
--------------------------------
 S      0   0   0     0.000000000000     0.00000000     0.00000000
 C      1   0   0     1.779075484627     0.00000000     0.00000000
 C      2   1   0     1.357261912823   109.60685395     0.00000000
 C      3   2   1     1.429273259387   114.67192777   353.23303511
 C      4   3   2     1.425304299580   114.01966592     7.29778821
 H      4   3   2     1.155013139492   125.58287477   188.97493904
 C      3   2   1     1.499627160330   124.39585951   179.12046892
 H      7   3   2     1.130491335659   104.48126701   125.83143194
 H      7   3   2     1.090445807915   103.05181002    12.30187988
 C      7   3   2     1.536783423258   112.75518946   251.35419336
 H     10   7   3     1.085729588802   106.36117838   315.87960815
 H     10   7   3     1.082598235727   117.31450778    64.71864717
 C     10   7   3     1.545190091866   115.45384221   193.74286877
 H     13  10   7     1.094253288777   111.67706332   192.76996361
 H     13  10   7     1.076258370467   114.39711323   306.88608846
 H     13  10   7     1.143463554295   106.96276723    68.17196400
 S      5   4   3     2.776041458786   136.47887209   146.25119702
 C     17   5   4     1.719902758908   119.19811100    91.44389316
 C     18  17   5     1.366229174077   112.01952371     7.17226555
 C     19  18  17     1.430714834654   112.24640221   348.18650352
 C     20  19  18     1.388292318822   111.34145635    13.18528916
 H     19  18  17     1.107272523094   120.60202998   174.43458932
 C     20  19  18     1.503673284859   122.51070135   185.04164885
 H     23  20  19     1.112207745388   106.43846759   167.66867484
 H     23  20  19     1.022844524647   104.47688481    63.59308498
 C     23  20  19     1.535118599457   122.13856980   291.38780812
 H     26  23  20     1.067552841596   111.22929275   308.47490945
 H     26  23  20     1.116880532062   108.62779837   182.38574564
 C     26  23  20     1.542478866144   106.62618710    68.00745702
 H     29  26  23     1.067416188560   121.17933635   167.89475314
 H     29  26  23     1.106712622183   112.18871865    52.49492427
 H     29  26  23     1.095080773277   116.39434682   288.11235970
 H      2   1   3     1.073825372209   116.45532925   178.72245750
 H     18  17   5     1.128601833952   127.53008252   191.87036952

---------------------------
INTERNAL COORDINATES (A.U.)
---------------------------
 S      0   0   0     0.000000000000     0.00000000     0.00000000
 C      1   0   0     3.361965437518     0.00000000     0.00000000
 C      2   1   0     2.564853307238   109.60685395     0.00000000
 C      3   2   1     2.700935030779   114.67192777   353.23303511
 C      4   3   2     2.693434783706   114.01966592     7.29778821
 H      4   3   2     2.182658514721   125.58287477   188.97493904
 C      3   2   1     2.833884636014   124.39585951   179.12046892
 H      7   3   2     2.136319021166   104.48126701   125.83143194
 H      7   3   2     2.060643940842   103.05181002    12.30187988
 C      7   3   2     2.904099797107   112.75518946   251.35419336
 H     10   7   3     2.051731578331   106.36117838   315.87960815
 H     10   7   3     2.045814178591   117.31450778    64.71864717
 C     10   7   3     2.919986098475   115.45384221   193.74286877
 H     13  10   7     2.067839036932   111.67706332   192.76996361
 H     13  10   7     2.033833569523   114.39711323   306.88608846
 H     13  10   7     2.160832961737   106.96276723    68.17196400
 S      5   4   3     5.245958093517   136.47887209   146.25119702
 C     17   5   4     3.250145191312   119.19811100    91.44389316
 C     18  17   5     2.581798975180   112.01952371     7.17226555
 C     19  18  17     2.703659213235   112.24640221   348.18650352
 C     20  19  18     2.623492276400   111.34145635    13.18528916
 H     19  18  17     2.092441824265   120.60202998   174.43458932
 C     20  19  18     2.841530703278   122.51070135   185.04164885
 H     23  20  19     2.101768042808   106.43846759   167.66867484
 H     23  20  19     1.932896029163   104.47688481    63.59308498
 C     23  20  19     2.900953736063   122.13856980   291.38780812
 H     26  23  20     2.017382504106   111.22929275   308.47490945
 H     26  23  20     2.110598329906   108.62779837   182.38574564
 C     26  23  20     2.914862624373   106.62618710    68.00745702
 H     29  26  23     2.017124267292   121.17933635   167.89475314
 H     29  26  23     2.091383764880   112.18871865    52.49492427
 H     29  26  23     2.069402756015   116.39434682   288.11235970
 H      2   1   3     2.029235869131   116.45532925   178.72245750
 H     18  17   5     2.132748380411   127.53008252   191.87036952

---------------------
BASIS SET INFORMATION
---------------------
There are 3 groups of distinct atoms

 Group   1 Type S   : 10s7p1d contracted to 4s3p1d pattern {5311/511/1}
 Group   2 Type C   : 7s4p1d contracted to 3s2p1d pattern {511/31/1}
 Group   3 Type H   : 4s1p contracted to 2s1p pattern {31/1}

Atom   0S    basis set group =>   1
Atom   1C    basis set group =>   2
Atom   2C    basis set group =>   2
Atom   3C    basis set group =>   2
Atom   4C    basis set group =>   2
Atom   5H    basis set group =>   3
Atom   6C    basis set group =>   2
Atom   7H    basis set group =>   3
Atom   8H    basis set group =>   3
Atom   9C    basis set group =>   2
Atom  10H    basis set group =>   3
Atom  11H    basis set group =>   3
Atom  12C    basis set group =>   2
Atom  13H    basis set group =>   3
Atom  14H    basis set group =>   3
Atom  15H    basis set group =>   3
Atom  16S    basis set group =>   1
Atom  17C    basis set group =>   2
Atom  18C    basis set group =>   2
Atom  19C    basis set group =>   2
Atom  20C    basis set group =>   2
Atom  21H    basis set group =>   3
Atom  22C    basis set group =>   2
Atom  23H    basis set group =>   3
Atom  24H    basis set group =>   3
Atom  25C    basis set group =>   2
Atom  26H    basis set group =>   3
Atom  27H    basis set group =>   3
Atom  28C    basis set group =>   2
Atom  29H    basis set group =>   3
Atom  30H    basis set group =>   3
Atom  31H    basis set group =>   3
Atom  32H    basis set group =>   3
Atom  33H    basis set group =>   3


           ************************************************************
           *        Program running with 24 parallel MPI-processes    *
           *              working on a common directory               *
           ************************************************************
------------------------------------------------------------------------------
                           ORCA GTO INTEGRAL CALCULATION
------------------------------------------------------------------------------

                         BASIS SET STATISTICS AND STARTUP INFO

 # of primitive gaussian shells          ...  294
 # of primitive gaussian functions       ...  534
 # of contracted shells                  ...  154
 # of contracted basis functions         ...  322
 Highest angular momentum                ...    2
 Maximum contraction depth               ...    5
 Integral package used                   ... LIBINT
 Integral threshhold            Thresh   ...  1.000e-10
 Primitive cut-off              TCut     ...  1.000e-11


------------------------------ INTEGRAL EVALUATION ----------------------------


 * One electron integrals 
 Pre-screening matrix                    ... done
 Shell pair data                         ... done (   0.003 sec)



           ************************************************************
           *        Program running with 24 parallel MPI-processes    *
           *              working on a common directory               *
           ************************************************************
-------------------------------------------------------------------------------
                                 ORCA SCF
-------------------------------------------------------------------------------

------------
SCF SETTINGS
------------
Hamiltonian:
 Density Functional     Method          .... DFT(GTOs)
 Exchange Functional    Exchange        .... WB97X-D3
 Correlation Functional Correlation     .... WB97X-D3
 Gradients option       PostSCFGGA      .... off
 Hybrid DFT is turned on
   Fraction HF Exchange ScalHFX         ....  0.195728
   Scaling of DF-GGA-X  ScalDFX         ....  0.000000
   Scaling of DF-GGA-C  ScalDFC         ....  1.000000
   Scaling of DF-LDA-C  ScalLDAC        ....  1.000000
   Perturbative correction              ....  0.000000
   Density functional embedding theory  .... OFF
 Long-range corrected/Screened/Range-Separated Hybrid DFT is turned on
   Amount of maximum screened exact exchange              ....  0.804272
   Range separation parameter mu (erf(mu*r12)/r12)        ....  0.250000


General Settings:
 Integral files         IntName         .... config_1434
 Hartree-Fock type      HFTyp           .... RHF
 Total Charge           Charge          ....    0
 Multiplicity           Mult            ....    1
 Number of Electrons    NEL             ....  134
 Basis Dimension        Dim             ....  322
 Nuclear Repulsion      ENuc            ....   1273.4784193200 Eh

Convergence Acceleration:
 DIIS                   CNVDIIS         .... on
   Start iteration      DIISMaxIt       ....    12
   Startup error        DIISStart       ....  0.200000
   # of expansion vecs  DIISMaxEq       ....     5
   Bias factor          DIISBfac        ....   1.050
   Max. coefficient     DIISMaxC        ....  10.000
 Newton-Raphson         CNVNR           .... off
 SOSCF                  CNVSOSCF        .... on
   Start iteration      SOSCFMaxIt      ....   150
   Startup grad/error   SOSCFStart      ....  0.003300
 Level Shifting         CNVShift        .... on
   Level shift para.    LevelShift      ....    0.2500
   Turn off err/grad.   ShiftErr        ....    0.0010
 Zerner damping         CNVZerner       .... off
 Static damping         CNVDamp         .... on
   Fraction old density DampFac         ....    0.7000
   Max. Damping (<1)    DampMax         ....    0.9800
   Min. Damping (>=0)   DampMin         ....    0.0000
   Turn off err/grad.   DampErr         ....    0.1000
 Fernandez-Rico         CNVRico         .... off

SCF Procedure:
 Maximum # iterations   MaxIter         ....   125
 SCF integral mode      SCFMode         .... Direct
   Integral package                     .... LIBINT
 Reset frequency        DirectResetFreq ....    20
 Integral Threshold     Thresh          ....  1.000e-10 Eh
 Primitive CutOff       TCut            ....  1.000e-11 Eh

Convergence Tolerance:
 Convergence Check Mode ConvCheckMode   .... Total+1el-Energy
 Convergence forced     ConvForced      .... 0
 Energy Change          TolE            ....  1.000e-06 Eh
 1-El. energy change                    ....  1.000e-03 Eh
 Orbital Gradient       TolG            ....  5.000e-05
 Orbital Rotation angle TolX            ....  5.000e-05
 DIIS Error             TolErr          ....  1.000e-06


Diagonalization of the overlap matrix:
Smallest eigenvalue                        ... 6.698e-04
Time for diagonalization                   ...    0.015 sec
Threshold for overlap eigenvalues          ... 1.000e-08
Number of eigenvalues below threshold      ... 0
Time for construction of square roots      ...    0.027 sec
Total time needed                          ...    0.043 sec

-------------------
DFT GRID GENERATION
-------------------

General Integration Accuracy     IntAcc      ...  4.340
Radial Grid Type                 RadialGrid  ... Gauss-Chebyshev
Angular Grid (max. acc.)         AngularGrid ... Lebedev-110
Angular grid pruning method      GridPruning ... 3 (G Style)
Weight generation scheme         WeightScheme... Becke
Basis function cutoff            BFCut       ...    1.0000e-10
Integration weight cutoff        WCut        ...    1.0000e-14
Grids for H and He will be reduced by one unit

# of grid points (after initial pruning)     ...  41088 (   0.0 sec)
# of grid points (after weights+screening)   ...  37024 (   0.0 sec)
nearest neighbour list constructed           ...    0.0 sec
Grid point re-assignment to atoms done       ...    0.0 sec
Grid point division into batches done        ...    0.0 sec
Reduced shell lists constructed in    0.1 sec

Total number of grid points                  ...    37024
Total number of batches                      ...      597
Average number of points per batch           ...       62
Average number of grid points per atom       ...     1089
Average number of shells per batch           ...    73.04 (47.43%)
Average number of basis functions per batch  ...   143.96 (44.71%)
Average number of large shells per batch     ...    46.73 (63.98%)
Average number of large basis fcns per batch ...    95.50 (66.34%)
Maximum spatial batch extension              ...  14.38, 12.64, 15.55 au
Average spatial batch extension              ...   0.16,  0.15,  0.16 au

Time for grid setup =    0.151 sec

------------------------------
INITIAL GUESS: MODEL POTENTIAL
------------------------------
Loading Hartree-Fock densities                     ... done
Calculating cut-offs                               ... done
Setting up the integral package                    ... done
Initializing the effective Hamiltonian             ... done
Starting the Coulomb interaction                   ... done (   0.0 sec)
Reading the grid                                   ... done
Mapping shells                                     ... done
Starting the XC term evaluation                    ... done (   0.0 sec)
  promolecular density results
     # of electrons  =    134.001221637
     EX              =   -126.701276962
     EC              =     -4.616350426
     EX+EC           =   -131.317627388
Transforming the Hamiltonian                       ... done (   0.0 sec)
Diagonalizing the Hamiltonian                      ... done (   0.0 sec)
Back transforming the eigenvectors                 ... done (   0.0 sec)
Now organizing SCF variables                       ... done
                      ------------------
                      INITIAL GUESS DONE (   0.3 sec)
                      ------------------
--------------
SCF ITERATIONS
--------------
ITER       Energy         Delta-E        Max-DP      RMS-DP      [F,P]     Damp
               ***  Starting incremental Fock matrix formation  ***
  0  -1339.4286837422   0.000000000000 0.06576889  0.00156280  0.1601881 0.7000
  1  -1339.6115310653  -0.182847323079 0.04380825  0.00114728  0.0958803 0.7000
                               ***Turning on DIIS***
  2  -1339.7002762576  -0.088745192347 0.08074487  0.00217078  0.0490860 0.0000
  3  -1339.8345247841  -0.134248526459 0.04090319  0.00094407  0.0447535 0.0000
  4  -1339.8631115858  -0.028586801737 0.00746290  0.00019699  0.0074299 0.0000
                      *** Initiating the SOSCF procedure ***
                           *** Shutting down DIIS ***
                      *** Re-Reading the Fockian *** 
                      *** Removing any level shift *** 
ITER      Energy       Delta-E        Grad      Rot      Max-DP    RMS-DP
  5  -1339.86398307  -0.0008714884  0.001376  0.001376  0.002919  0.000094
               *** Restarting incremental Fock matrix formation ***
  6  -1339.86415764  -0.0001745656  0.001158  0.003150  0.002293  0.000062
  7  -1339.86421310  -0.0000554628  0.000714  0.003624  0.002604  0.000062
  8  -1339.86422839  -0.0000152847  0.000492  0.000943  0.000791  0.000022
  9  -1339.86423327  -0.0000048805  0.000133  0.000457  0.000402  0.000009
 10  -1339.86423378  -0.0000005166  0.000087  0.000250  0.000138  0.000003
                 **** Energy Check signals convergence ****
              ***Rediagonalizing the Fockian in SOSCF/NRSCF***

               *****************************************************
               *                     SUCCESS                       *
               *           SCF CONVERGED AFTER  11 CYCLES          *
               *****************************************************

Setting up the final grid:

General Integration Accuracy     IntAcc      ...  4.670
Radial Grid Type                 RadialGrid  ... Gauss-Chebyshev
Angular Grid (max. acc.)         AngularGrid ... Lebedev-302
Angular grid pruning method      GridPruning ... 3 (G Style)
Weight generation scheme         WeightScheme... Becke
Basis function cutoff            BFCut       ...    1.0000e-10
Integration weight cutoff        WCut        ...    1.0000e-14
Grids for H and He will be reduced by one unit

# of grid points (after initial pruning)     ... 161752 (   0.0 sec)
# of grid points (after weights+screening)   ... 143059 (   0.1 sec)
nearest neighbour list constructed           ...    0.0 sec
Grid point re-assignment to atoms done       ...    0.0 sec
Grid point division into batches done        ...    0.5 sec
Reduced shell lists constructed in    0.5 sec

Total number of grid points                  ...   143059
Total number of batches                      ...     2253
Average number of points per batch           ...       63
Average number of grid points per atom       ...     4208
Average number of shells per batch           ...    68.11 (44.22%)
Average number of basis functions per batch  ...   133.52 (41.46%)
Average number of large shells per batch     ...    42.11 (61.82%)
Average number of large basis fcns per batch ...    85.83 (64.29%)
Maximum spatial batch extension              ...  11.89, 13.35, 12.53 au
Average spatial batch extension              ...   0.10,  0.10,  0.10 au

Final grid set up in    0.8 sec
Final integration                            ... done (   0.3 sec)
Change in XC energy                          ...     0.007263114
Integrated number of electrons               ...   134.000134890
Previous integrated no of electrons          ...   134.003693512

----------------
TOTAL SCF ENERGY
----------------

Total Energy       :        -1339.85697087 Eh          -36459.36174 eV

Components:
Nuclear Repulsion  :         1273.47841932 Eh           34653.10952 eV
Electronic Energy  :        -2613.33539019 Eh          -71112.47126 eV
One Electron Energy:        -4363.74034211 Eh         -118743.41151 eV
Two Electron Energy:         1750.40495192 Eh           47630.94025 eV

Virial components:
Potential Energy   :        -2671.21536252 Eh          -72687.46537 eV
Kinetic Energy     :         1331.35839165 Eh           36228.10364 eV
Virial Ratio       :            2.00638339


DFT components:
N(Alpha)           :       67.000067444992 electrons
N(Beta)            :       67.000067444992 electrons
N(Total)           :      134.000134889984 electrons
E(XC)              :      -94.222241765042 Eh       
DFET-embed. en.    :        0.000000000000 Eh       

---------------
SCF CONVERGENCE
---------------

  Last Energy change         ...   -2.0160e-07  Tolerance :   1.0000e-06
  Last MAX-Density change    ...    3.3179e-05  Tolerance :   1.0000e-05
  Last RMS-Density change    ...    6.9291e-07  Tolerance :   1.0000e-06
  Last Orbital Gradient      ...    1.0677e-05  Tolerance :   5.0000e-05
  Last Orbital Rotation      ...    3.1033e-05  Tolerance :   5.0000e-05

             **** THE GBW FILE WAS UPDATED (config_1434.gbw) ****
             **** DENSITY FILE WAS UPDATED (config_1434.scfp) ****
             **** ENERGY FILE WAS UPDATED (config_1434.en.tmp) ****
             **** THE GBW FILE WAS UPDATED (config_1434.gbw) ****
             **** DENSITY FILE WAS UPDATED (config_1434.scfp) ****
----------------
ORBITAL ENERGIES
----------------

  NO   OCC          E(Eh)            E(eV) 
   0   2.0000     -88.965729     -2420.8806 
   1   2.0000     -88.961280     -2420.7595 
   2   2.0000     -10.336177      -281.2617 
   3   2.0000     -10.325451      -280.9698 
   4   2.0000     -10.316451      -280.7249 
   5   2.0000     -10.315744      -280.7057 
   6   2.0000     -10.305963      -280.4395 
   7   2.0000     -10.302103      -280.3345 
   8   2.0000     -10.300082      -280.2795 
   9   2.0000     -10.296249      -280.1752 
  10   2.0000     -10.291536      -280.0469 
  11   2.0000     -10.291328      -280.0413 
  12   2.0000     -10.286192      -279.9015 
  13   2.0000     -10.282910      -279.8122 
  14   2.0000     -10.280439      -279.7450 
  15   2.0000     -10.272961      -279.5415 
  16   2.0000      -8.081314      -219.9037 
  17   2.0000      -8.075680      -219.7504 
  18   2.0000      -6.039739      -164.3496 
  19   2.0000      -6.035664      -164.2388 
  20   2.0000      -6.034215      -164.1993 
  21   2.0000      -6.032144      -164.1430 
  22   2.0000      -6.030064      -164.0864 
  23   2.0000      -6.026605      -163.9923 
  24   2.0000      -1.006707       -27.3939 
  25   2.0000      -0.984792       -26.7976 
  26   2.0000      -0.910528       -24.7767 
  27   2.0000      -0.909760       -24.7558 
  28   2.0000      -0.867003       -23.5924 
  29   2.0000      -0.847527       -23.0624 
  30   2.0000      -0.842241       -22.9185 
  31   2.0000      -0.813120       -22.1261 
  32   2.0000      -0.783459       -21.3190 
  33   2.0000      -0.770326       -20.9616 
  34   2.0000      -0.711945       -19.3730 
  35   2.0000      -0.702568       -19.1179 
  36   2.0000      -0.692243       -18.8369 
  37   2.0000      -0.655356       -17.8331 
  38   2.0000      -0.641445       -17.4546 
  39   2.0000      -0.617117       -16.7926 
  40   2.0000      -0.595835       -16.2135 
  41   2.0000      -0.566817       -15.4239 
  42   2.0000      -0.556728       -15.1493 
  43   2.0000      -0.548716       -14.9313 
  44   2.0000      -0.535474       -14.5710 
  45   2.0000      -0.524355       -14.2684 
  46   2.0000      -0.517888       -14.0925 
  47   2.0000      -0.513317       -13.9681 
  48   2.0000      -0.508646       -13.8409 
  49   2.0000      -0.495578       -13.4854 
  50   2.0000      -0.484384       -13.1808 
  51   2.0000      -0.480332       -13.0705 
  52   2.0000      -0.471165       -12.8211 
  53   2.0000      -0.465076       -12.6554 
  54   2.0000      -0.459016       -12.4905 
  55   2.0000      -0.444940       -12.1074 
  56   2.0000      -0.442248       -12.0342 
  57   2.0000      -0.438301       -11.9268 
  58   2.0000      -0.430509       -11.7147 
  59   2.0000      -0.421650       -11.4737 
  60   2.0000      -0.417489       -11.3605 
  61   2.0000      -0.413216       -11.2442 
  62   2.0000      -0.408581       -11.1180 
  63   2.0000      -0.337639        -9.1876 
  64   2.0000      -0.332378        -9.0445 
  65   2.0000      -0.326070        -8.8728 
  66   2.0000      -0.301313        -8.1991 
  67   0.0000       0.041604         1.1321 
  68   0.0000       0.058403         1.5892 
  69   0.0000       0.119216         3.2440 
  70   0.0000       0.122571         3.3353 
  71   0.0000       0.127217         3.4617 
  72   0.0000       0.135322         3.6823 
  73   0.0000       0.152253         4.1430 
  74   0.0000       0.153422         4.1748 
  75   0.0000       0.159811         4.3487 
  76   0.0000       0.173671         4.7258 
  77   0.0000       0.174463         4.7474 
  78   0.0000       0.186439         5.0733 
  79   0.0000       0.189829         5.1655 
  80   0.0000       0.201565         5.4849 
  81   0.0000       0.204089         5.5535 
  82   0.0000       0.212759         5.7895 
  83   0.0000       0.218510         5.9460 
  84   0.0000       0.222638         6.0583 
  85   0.0000       0.227320         6.1857 
  86   0.0000       0.230254         6.2655 
  87   0.0000       0.235527         6.4090 
  88   0.0000       0.243584         6.6283 
  89   0.0000       0.250572         6.8184 
  90   0.0000       0.255595         6.9551 
  91   0.0000       0.257607         7.0098 
  92   0.0000       0.272612         7.4181 
  93   0.0000       0.296242         8.0611 
  94   0.0000       0.309235         8.4147 
  95   0.0000       0.316921         8.6239 
  96   0.0000       0.326280         8.8785 
  97   0.0000       0.332923         9.0593 
  98   0.0000       0.347424         9.4539 
  99   0.0000       0.368814        10.0359 
 100   0.0000       0.384576        10.4649 
 101   0.0000       0.393686        10.7127 
 102   0.0000       0.407591        11.0911 
 103   0.0000       0.425936        11.5903 
 104   0.0000       0.432343        11.7646 
 105   0.0000       0.437010        11.8917 
 106   0.0000       0.457748        12.4560 
 107   0.0000       0.484615        13.1871 
 108   0.0000       0.498255        13.5582 
 109   0.0000       0.501897        13.6573 
 110   0.0000       0.508550        13.8383 
 111   0.0000       0.511073        13.9070 
 112   0.0000       0.519806        14.1446 
 113   0.0000       0.521944        14.2028 
 114   0.0000       0.532996        14.5036 
 115   0.0000       0.535834        14.5808 
 116   0.0000       0.544868        14.8266 
 117   0.0000       0.551110        14.9965 
 118   0.0000       0.561695        15.2845 
 119   0.0000       0.579764        15.7762 
 120   0.0000       0.584083        15.8937 
 121   0.0000       0.589586        16.0434 
 122   0.0000       0.601081        16.3562 
 123   0.0000       0.609767        16.5926 
 124   0.0000       0.615257        16.7420 
 125   0.0000       0.619463        16.8564 
 126   0.0000       0.634988        17.2789 
 127   0.0000       0.640420        17.4267 
 128   0.0000       0.648052        17.6344 
 129   0.0000       0.651169        17.7192 
 130   0.0000       0.667551        18.1650 
 131   0.0000       0.675949        18.3935 
 132   0.0000       0.693503        18.8712 
 133   0.0000       0.700524        19.0622 
 134   0.0000       0.706127        19.2147 
 135   0.0000       0.709839        19.3157 
 136   0.0000       0.721232        19.6257 
 137   0.0000       0.726117        19.7586 
 138   0.0000       0.729053        19.8385 
 139   0.0000       0.733485        19.9591 
 140   0.0000       0.744365        20.2552 
 141   0.0000       0.748229        20.3603 
 142   0.0000       0.754662        20.5354 
 143   0.0000       0.757417        20.6104 
 144   0.0000       0.763680        20.7808 
 145   0.0000       0.770158        20.9571 
 146   0.0000       0.772778        21.0284 
 147   0.0000       0.773798        21.0561 
 148   0.0000       0.776378        21.1263 
 149   0.0000       0.779606        21.2142 
 150   0.0000       0.779972        21.2241 
 151   0.0000       0.788651        21.4603 
 152   0.0000       0.792771        21.5724 
 153   0.0000       0.799229        21.7481 
 154   0.0000       0.800290        21.7770 
 155   0.0000       0.804655        21.8958 
 156   0.0000       0.811433        22.0802 
 157   0.0000       0.816944        22.2302 
 158   0.0000       0.820971        22.3398 
 159   0.0000       0.822959        22.3939 
 160   0.0000       0.828086        22.5334 
 161   0.0000       0.833569        22.6826 
 162   0.0000       0.847533        23.0625 
 163   0.0000       0.854364        23.2484 
 164   0.0000       0.861246        23.4357 
 165   0.0000       0.866876        23.5889 
 166   0.0000       0.873395        23.7663 
 167   0.0000       0.886486        24.1225 
 168   0.0000       0.891964        24.2716 
 169   0.0000       0.908111        24.7109 
 170   0.0000       0.916727        24.9454 
 171   0.0000       0.931303        25.3420 
 172   0.0000       0.935168        25.4472 
 173   0.0000       0.937014        25.4974 
 174   0.0000       0.965058        26.2606 
 175   0.0000       0.971641        26.4397 
 176   0.0000       0.975544        26.5459 
 177   0.0000       0.988338        26.8941 
 178   0.0000       1.035414        28.1750 
 179   0.0000       1.041326        28.3359 
 180   0.0000       1.059472        28.8297 
 181   0.0000       1.063754        28.9462 
 182   0.0000       1.090898        29.6849 
 183   0.0000       1.106921        30.1208 
 184   0.0000       1.114313        30.3220 
 185   0.0000       1.130874        30.7726 
 186   0.0000       1.147628        31.2285 
 187   0.0000       1.161530        31.6068 
 188   0.0000       1.177134        32.0314 
 189   0.0000       1.187588        32.3159 
 190   0.0000       1.197856        32.5953 
 191   0.0000       1.227046        33.3896 
 192   0.0000       1.236064        33.6350 
 193   0.0000       1.267386        34.4873 
 194   0.0000       1.280335        34.8397 
 195   0.0000       1.304903        35.5082 
 196   0.0000       1.319692        35.9106 
 197   0.0000       1.332032        36.2464 
 198   0.0000       1.359018        36.9808 
 199   0.0000       1.372602        37.3504 
 200   0.0000       1.384048        37.6619 
 201   0.0000       1.406909        38.2839 
 202   0.0000       1.423781        38.7431 
 203   0.0000       1.440105        39.1873 
 204   0.0000       1.453796        39.5598 
 205   0.0000       1.465252        39.8715 
 206   0.0000       1.472838        40.0780 
 207   0.0000       1.496538        40.7229 
 208   0.0000       1.500333        40.8261 
 209   0.0000       1.567815        42.6624 
 210   0.0000       1.598935        43.5092 
 211   0.0000       1.613060        43.8936 
 212   0.0000       1.617899        44.0253 
 213   0.0000       1.637205        44.5506 
 214   0.0000       1.647059        44.8188 
 215   0.0000       1.691500        46.0281 
 216   0.0000       1.696324        46.1593 
 217   0.0000       1.718794        46.7708 
 218   0.0000       1.752806        47.6963 
 219   0.0000       1.775377        48.3105 
 220   0.0000       1.795107        48.8473 
 221   0.0000       1.797588        48.9149 
 222   0.0000       1.803175        49.0669 
 223   0.0000       1.814325        49.3703 
 224   0.0000       1.818371        49.4804 
 225   0.0000       1.829867        49.7932 
 226   0.0000       1.831003        49.8241 
 227   0.0000       1.842872        50.1471 
 228   0.0000       1.850673        50.3594 
 229   0.0000       1.852962        50.4216 
 230   0.0000       1.867361        50.8135 
 231   0.0000       1.875673        51.0397 
 232   0.0000       1.878799        51.1247 
 233   0.0000       1.893619        51.5280 
 234   0.0000       1.901356        51.7385 
 235   0.0000       1.909970        51.9729 
 236   0.0000       1.926171        52.4138 
 237   0.0000       1.930456        52.5304 
 238   0.0000       1.935036        52.6550 
 239   0.0000       1.942603        52.8609 
 240   0.0000       1.956747        53.2458 
 241   0.0000       1.966510        53.5114 
 242   0.0000       1.967597        53.5410 
 243   0.0000       1.969086        53.5815 
 244   0.0000       1.985039        54.0156 
 245   0.0000       1.986540        54.0565 
 246   0.0000       2.002531        54.4916 
 247   0.0000       2.004199        54.5370 
 248   0.0000       2.009628        54.6848 
 249   0.0000       2.034170        55.3526 
 250   0.0000       2.035833        55.3978 
 251   0.0000       2.056819        55.9689 
 252   0.0000       2.060701        56.0745 
 253   0.0000       2.062317        56.1185 
 254   0.0000       2.080696        56.6186 
 255   0.0000       2.099118        57.1199 
 256   0.0000       2.104088        57.2552 
 257   0.0000       2.115621        57.5690 
 258   0.0000       2.128231        57.9121 
 259   0.0000       2.134404        58.0801 
 260   0.0000       2.152499        58.5725 
 261   0.0000       2.168514        59.0083 
 262   0.0000       2.182301        59.3834 
 263   0.0000       2.202969        59.9458 
 264   0.0000       2.207978        60.0821 
 265   0.0000       2.241147        60.9847 
 266   0.0000       2.247782        61.1652 
 267   0.0000       2.274618        61.8955 
 268   0.0000       2.281575        62.0848 
 269   0.0000       2.307123        62.7800 
 270   0.0000       2.321175        63.1624 
 271   0.0000       2.339240        63.6540 
 272   0.0000       2.373329        64.5816 
 273   0.0000       2.390713        65.0546 
 274   0.0000       2.398780        65.2741 
 275   0.0000       2.427624        66.0590 
 276   0.0000       2.433948        66.2311 
 277   0.0000       2.450274        66.6753 
 278   0.0000       2.453029        66.7503 
 279   0.0000       2.485501        67.6339 
 280   0.0000       2.492128        67.8143 
 281   0.0000       2.499105        68.0041 
 282   0.0000       2.502184        68.0879 
 283   0.0000       2.516062        68.4655 
 284   0.0000       2.532387        68.9098 
 285   0.0000       2.551904        69.4408 
 286   0.0000       2.573602        70.0313 
 287   0.0000       2.587833        70.4185 
 288   0.0000       2.609140        70.9983 
 289   0.0000       2.614399        71.1414 
 290   0.0000       2.631146        71.5971 
 291   0.0000       2.652271        72.1720 
 292   0.0000       2.666050        72.5469 
 293   0.0000       2.688936        73.1697 
 294   0.0000       2.713202        73.8300 
 295   0.0000       2.720226        74.0211 
 296   0.0000       2.735049        74.4245 
 297   0.0000       2.758369        75.0590 
 298   0.0000       2.780093        75.6502 
 299   0.0000       2.786276        75.8184 
 300   0.0000       2.817327        76.6634 
 301   0.0000       2.841980        77.3342 
 302   0.0000       2.888039        78.5875 
 303   0.0000       2.898002        78.8587 
 304   0.0000       2.907987        79.1304 
 305   0.0000       2.957883        80.4881 
 306   0.0000       2.988261        81.3147 
 307   0.0000       3.004646        81.7606 
 308   0.0000       3.027432        82.3806 
 309   0.0000       3.031478        82.4907 
 310   0.0000       3.053636        83.0937 
 311   0.0000       3.081931        83.8636 
 312   0.0000       3.084269        83.9272 
 313   0.0000       3.122365        84.9639 
 314   0.0000       3.129621        85.1613 
 315   0.0000       3.166388        86.1618 
 316   0.0000       3.187296        86.7307 
 317   0.0000       3.213145        87.4341 
 318   0.0000       3.254904        88.5704 
 319   0.0000       3.304684        89.9250 
 320   0.0000       3.373803        91.8059 
 321   0.0000       3.421786        93.1115 

                    ********************************
                    * MULLIKEN POPULATION ANALYSIS *
                    ********************************

-----------------------
MULLIKEN ATOMIC CHARGES
-----------------------
   0 S :    0.086728
   1 C :   -0.140502
   2 C :   -0.089273
   3 C :    0.013676
   4 C :   -0.154529
   5 H :    0.049617
   6 C :    0.077254
   7 H :    0.041682
   8 H :    0.014107
   9 C :   -0.063105
  10 H :    0.021326
  11 H :    0.022641
  12 C :   -0.054199
  13 H :    0.035134
  14 H :    0.025767
  15 H :    0.044188
  16 S :    0.127618
  17 C :   -0.107990
  18 C :   -0.053575
  19 C :   -0.052775
  20 C :   -0.175322
  21 H :    0.030772
  22 C :    0.094383
  23 H :    0.010860
  24 H :   -0.001395
  25 C :    0.006448
  26 H :    0.038075
  27 H :    0.042580
  28 C :   -0.087200
  29 H :    0.014589
  30 H :    0.016881
  31 H :    0.037865
  32 H :    0.051943
  33 H :    0.075732
Sum of atomic charges:   -0.0000000

--------------------------------
MULLIKEN REDUCED ORBITAL CHARGES
--------------------------------
  0 S s       :     5.847598  s :     5.847598
      pz      :     3.399233  p :     9.963632
      px      :     3.442700
      py      :     3.121699
      dz2     :     0.014679  d :     0.102042
      dxz     :     0.014576
      dyz     :     0.033537
      dx2y2   :     0.017763
      dxy     :     0.021487
  1 C s       :     3.219113  s :     3.219113
      pz      :     0.929988  p :     2.887397
      px      :     1.039446
      py      :     0.917964
      dz2     :     0.008203  d :     0.033992
      dxz     :     0.004969
      dyz     :     0.009490
      dx2y2   :     0.004932
      dxy     :     0.006397
  2 C s       :     3.071577  s :     3.071577
      pz      :     0.998589  p :     2.971691
      px      :     0.967593
      py      :     1.005509
      dz2     :     0.010577  d :     0.046005
      dxz     :     0.007505
      dyz     :     0.010452
      dx2y2   :     0.010049
      dxy     :     0.007422
  3 C s       :     3.194579  s :     3.194579
      pz      :     0.897800  p :     2.759723
      px      :     0.965287
      py      :     0.896636
      dz2     :     0.007389  d :     0.032022
      dxz     :     0.005502
      dyz     :     0.007665
      dx2y2   :     0.005075
      dxy     :     0.006391
  4 C s       :     3.110063  s :     3.110063
      pz      :     1.002173  p :     3.002423
      px      :     1.010770
      py      :     0.989479
      dz2     :     0.008096  d :     0.042043
      dxz     :     0.005704
      dyz     :     0.011440
      dx2y2   :     0.007368
      dxy     :     0.009435
  5 H s       :     0.929283  s :     0.929283
      pz      :     0.007369  p :     0.021101
      px      :     0.007749
      py      :     0.005983
  6 C s       :     2.970647  s :     2.970647
      pz      :     0.971569  p :     2.916798
      px      :     0.975329
      py      :     0.969899
      dz2     :     0.007375  d :     0.035301
      dxz     :     0.004498
      dyz     :     0.008527
      dx2y2   :     0.005203
      dxy     :     0.009698
  7 H s       :     0.936710  s :     0.936710
      pz      :     0.009727  p :     0.021608
      px      :     0.003636
      py      :     0.008245
  8 H s       :     0.962562  s :     0.962562
      pz      :     0.004734  p :     0.023331
      px      :     0.009160
      py      :     0.009437
  9 C s       :     3.037979  s :     3.037979
      pz      :     0.995709  p :     2.989060
      px      :     0.963662
      py      :     1.029689
      dz2     :     0.006260  d :     0.036067
      dxz     :     0.006315
      dyz     :     0.009874
      dx2y2   :     0.004955
      dxy     :     0.008663
 10 H s       :     0.955196  s :     0.955196
      pz      :     0.005809  p :     0.023479
      px      :     0.007491
      py      :     0.010179
 11 H s       :     0.953684  s :     0.953684
      pz      :     0.009087  p :     0.023675
      px      :     0.004101
      py      :     0.010487
 12 C s       :     3.029266  s :     3.029266
      pz      :     0.984134  p :     2.997492
      px      :     1.022408
      py      :     0.990950
      dz2     :     0.004933  d :     0.027441
      dxz     :     0.004654
      dyz     :     0.008417
      dx2y2   :     0.002195
      dxy     :     0.007241
 13 H s       :     0.941477  s :     0.941477
      pz      :     0.004324  p :     0.023388
      px      :     0.011406
      py      :     0.007658
 14 H s       :     0.949625  s :     0.949625
      pz      :     0.006790  p :     0.024608
      px      :     0.008906
      py      :     0.008911
 15 H s       :     0.934835  s :     0.934835
      pz      :     0.006703  p :     0.020977
      px      :     0.004277
      py      :     0.009997
 16 S s       :     5.840552  s :     5.840552
      pz      :     3.338238  p :     9.917873
      px      :     3.510365
      py      :     3.069271
      dz2     :     0.026956  d :     0.113956
      dxz     :     0.020183
      dyz     :     0.019301
      dx2y2   :     0.028173
      dxy     :     0.019342
 17 C s       :     3.143329  s :     3.143329
      pz      :     1.043916  p :     2.928602
      px      :     1.031898
      py      :     0.852788
      dz2     :     0.007315  d :     0.036059
      dxz     :     0.004578
      dyz     :     0.007677
      dx2y2   :     0.008983
      dxy     :     0.007506
 18 C s       :     3.185847  s :     3.185847
      pz      :     0.964776  p :     2.832511
      px      :     0.969672
      py      :     0.898063
      dz2     :     0.008553  d :     0.035217
      dxz     :     0.005530
      dyz     :     0.007800
      dx2y2   :     0.007589
      dxy     :     0.005744
 19 C s       :     3.071146  s :     3.071146
      pz      :     0.973434  p :     2.937188
      px      :     1.005558
      py      :     0.958195
      dz2     :     0.008398  d :     0.044442
      dxz     :     0.005956
      dyz     :     0.014352
      dx2y2   :     0.006761
      dxy     :     0.008975
 20 C s       :     3.081854  s :     3.081854
      pz      :     0.961911  p :     3.049688
      px      :     1.069258
      py      :     1.018519
      dz2     :     0.009887  d :     0.043780
      dxz     :     0.006616
      dyz     :     0.009032
      dx2y2   :     0.010161
      dxy     :     0.008085
 21 H s       :     0.946236  s :     0.946236
      pz      :     0.003802  p :     0.022992
      px      :     0.005471
      py      :     0.013718
 22 C s       :     2.893733  s :     2.893733
      pz      :     1.000179  p :     2.974746
      px      :     0.943776
      py      :     1.030792
      dz2     :     0.004981  d :     0.037137
      dxz     :     0.010504
      dyz     :     0.007742
      dx2y2   :     0.007725
      dxy     :     0.006185
 23 H s       :     0.966033  s :     0.966033
      pz      :     0.006362  p :     0.023107
      px      :     0.003966
      py      :     0.012779
 24 H s       :     0.974117  s :     0.974117
      pz      :     0.009703  p :     0.027278
      px      :     0.007035
      py      :     0.010539
 25 C s       :     3.034904  s :     3.034904
      pz      :     0.988725  p :     2.923371
      px      :     0.955024
      py      :     0.979621
      dz2     :     0.006626  d :     0.035277
      dxz     :     0.005924
      dyz     :     0.006492
      dx2y2   :     0.009201
      dxy     :     0.007034
 26 H s       :     0.938548  s :     0.938548
      pz      :     0.008707  p :     0.023378
      px      :     0.006123
      py      :     0.008548
 27 H s       :     0.936155  s :     0.936155
      pz      :     0.012267  p :     0.021265
      px      :     0.004979
      py      :     0.004019
 28 C s       :     3.024106  s :     3.024106
      pz      :     1.022119  p :     3.034043
      px      :     1.043413
      py      :     0.968511
      dz2     :     0.007711  d :     0.029051
      dxz     :     0.002291
      dyz     :     0.005942
      dx2y2   :     0.004789
      dxy     :     0.008318
 29 H s       :     0.959896  s :     0.959896
      pz      :     0.006358  p :     0.025515
      px      :     0.012899
      py      :     0.006259
 30 H s       :     0.959493  s :     0.959493
      pz      :     0.007486  p :     0.023626
      px      :     0.008346
      py      :     0.007794
 31 H s       :     0.937950  s :     0.937950
      pz      :     0.013708  p :     0.024185
      px      :     0.006575
      py      :     0.003902
 32 H s       :     0.923797  s :     0.923797
      pz      :     0.003570  p :     0.024260
      px      :     0.008862
      py      :     0.011828
 33 H s       :     0.902321  s :     0.902321
      pz      :     0.006796  p :     0.021947
      px      :     0.006246
      py      :     0.008905


                     *******************************
                     * LOEWDIN POPULATION ANALYSIS *
                     *******************************

----------------------
LOEWDIN ATOMIC CHARGES
----------------------
   0 S :    0.385638
   1 C :   -0.181244
   2 C :   -0.073779
   3 C :   -0.072880
   4 C :   -0.191419
   5 H :    0.045680
   6 C :   -0.029165
   7 H :    0.039566
   8 H :    0.027254
   9 C :   -0.045551
  10 H :    0.024407
  11 H :    0.025859
  12 C :   -0.069960
  13 H :    0.028335
  14 H :    0.020018
  15 H :    0.033378
  16 S :    0.429887
  17 C :   -0.205220
  18 C :   -0.079932
  19 C :   -0.049320
  20 C :   -0.217052
  21 H :    0.036851
  22 C :   -0.034225
  23 H :    0.034667
  24 H :    0.018569
  25 C :   -0.021899
  26 H :    0.026470
  27 H :    0.035888
  28 C :   -0.080865
  29 H :    0.018912
  30 H :    0.023575
  31 H :    0.026079
  32 H :    0.026624
  33 H :    0.044857

-------------------------------
LOEWDIN REDUCED ORBITAL CHARGES
-------------------------------
  0 S s       :     5.522772  s :     5.522772
      pz      :     3.411813  p :     9.966916
      px      :     3.438582
      py      :     3.116521
      dz2     :     0.015961  d :     0.124675
      dxz     :     0.016220
      dyz     :     0.042610
      dx2y2   :     0.021950
      dxy     :     0.027935
  1 C s       :     2.927727  s :     2.927727
      pz      :     1.030046  p :     3.171649
      px      :     1.098433
      py      :     1.043169
      dz2     :     0.019817  d :     0.081869
      dxz     :     0.013486
      dyz     :     0.022534
      dx2y2   :     0.010317
      dxy     :     0.015715
  2 C s       :     2.854191  s :     2.854191
      pz      :     1.042559  p :     3.104739
      px      :     1.019547
      py      :     1.042633
      dz2     :     0.025134  d :     0.114849
      dxz     :     0.020794
      dyz     :     0.025953
      dx2y2   :     0.024408
      dxy     :     0.018561
  3 C s       :     2.894566  s :     2.894566
      pz      :     1.035516  p :     3.095063
      px      :     1.030645
      py      :     1.028902
      dz2     :     0.019810  d :     0.083251
      dxz     :     0.013628
      dyz     :     0.022088
      dx2y2   :     0.012150
      dxy     :     0.015576
  4 C s       :     2.928702  s :     2.928702
      pz      :     1.079597  p :     3.164350
      px      :     1.051196
      py      :     1.033557
      dz2     :     0.020048  d :     0.098367
      dxz     :     0.012542
      dyz     :     0.028260
      dx2y2   :     0.016950
      dxy     :     0.020566
  5 H s       :     0.894967  s :     0.894967
      pz      :     0.020733  p :     0.059352
      px      :     0.021664
      py      :     0.016956
  6 C s       :     2.833222  s :     2.833222
      pz      :     1.030261  p :     3.106975
      px      :     1.034054
      py      :     1.042659
      dz2     :     0.019296  d :     0.088968
      dxz     :     0.009706
      dyz     :     0.023207
      dx2y2   :     0.012191
      dxy     :     0.024568
  7 H s       :     0.899353  s :     0.899353
      pz      :     0.027051  p :     0.061081
      px      :     0.011148
      py      :     0.022881
  8 H s       :     0.904945  s :     0.904945
      pz      :     0.013669  p :     0.067801
      px      :     0.027448
      py      :     0.026684
  9 C s       :     2.832047  s :     2.832047
      pz      :     1.036825  p :     3.125804
      px      :     1.019884
      py      :     1.069095
      dz2     :     0.015753  d :     0.087700
      dxz     :     0.014548
      dyz     :     0.024070
      dx2y2   :     0.012085
      dxy     :     0.021245
 10 H s       :     0.906741  s :     0.906741
      pz      :     0.018203  p :     0.068852
      px      :     0.023245
      py      :     0.027404
 11 H s       :     0.904332  s :     0.904332
      pz      :     0.027424  p :     0.069810
      px      :     0.014236
      py      :     0.028149
 12 C s       :     2.844741  s :     2.844741
      pz      :     1.034857  p :     3.156036
      px      :     1.075731
      py      :     1.045448
      dz2     :     0.012020  d :     0.069183
      dxz     :     0.011992
      dyz     :     0.021205
      dx2y2   :     0.005469
      dxy     :     0.018497
 13 H s       :     0.905444  s :     0.905444
      pz      :     0.013384  p :     0.066221
      px      :     0.031306
      py      :     0.021532
 14 H s       :     0.910185  s :     0.910185
      pz      :     0.020460  p :     0.069797
      px      :     0.024526
      py      :     0.024811
 15 H s       :     0.909039  s :     0.909039
      pz      :     0.019476  p :     0.057583
      px      :     0.010930
      py      :     0.027177
 16 S s       :     5.488893  s :     5.488893
      pz      :     3.346693  p :     9.938914
      px      :     3.495606
      py      :     3.096615
      dz2     :     0.033703  d :     0.142306
      dxz     :     0.025211
      dyz     :     0.023357
      dx2y2   :     0.036973
      dxy     :     0.023062
 17 C s       :     2.936183  s :     2.936183
      pz      :     1.094414  p :     3.184650
      px      :     1.082543
      py      :     1.007692
      dz2     :     0.015327  d :     0.084387
      dxz     :     0.012182
      dyz     :     0.018448
      dx2y2   :     0.020529
      dxy     :     0.017902
 18 C s       :     2.872462  s :     2.872462
      pz      :     1.043234  p :     3.115619
      px      :     1.034183
      py      :     1.038202
      dz2     :     0.020352  d :     0.091851
      dxz     :     0.015609
      dyz     :     0.022523
      dx2y2   :     0.018897
      dxy     :     0.014470
 19 C s       :     2.857230  s :     2.857230
      pz      :     1.026366  p :     3.080966
      px      :     1.000119
      py      :     1.054481
      dz2     :     0.018911  d :     0.111124
      dxz     :     0.014065
      dyz     :     0.037905
      dx2y2   :     0.018582
      dxy     :     0.021661
 20 C s       :     2.907669  s :     2.907669
      pz      :     1.035710  p :     3.203842
      px      :     1.101281
      py      :     1.066851
      dz2     :     0.023196  d :     0.105541
      dxz     :     0.014855
      dyz     :     0.023799
      dx2y2   :     0.025349
      dxy     :     0.018341
 21 H s       :     0.896394  s :     0.896394
      pz      :     0.012245  p :     0.066755
      px      :     0.015621
      py      :     0.038889
 22 C s       :     2.808872  s :     2.808872
      pz      :     1.032568  p :     3.132555
      px      :     1.020789
      py      :     1.079198
      dz2     :     0.013219  d :     0.092798
      dxz     :     0.025357
      dyz     :     0.019731
      dx2y2   :     0.020762
      dxy     :     0.013730
 23 H s       :     0.899909  s :     0.899909
      pz      :     0.019132  p :     0.065424
      px      :     0.012852
      py      :     0.033440
 24 H s       :     0.898112  s :     0.898112
      pz      :     0.029336  p :     0.083319
      px      :     0.024465
      py      :     0.029518
 25 C s       :     2.834840  s :     2.834840
      pz      :     1.053447  p :     3.100443
      px      :     1.014104
      py      :     1.032893
      dz2     :     0.017252  d :     0.086616
      dxz     :     0.014328
      dyz     :     0.015901
      dx2y2   :     0.024212
      dxy     :     0.014922
 26 H s       :     0.902600  s :     0.902600
      pz      :     0.025536  p :     0.070931
      px      :     0.019605
      py      :     0.025790
 27 H s       :     0.902324  s :     0.902324
      pz      :     0.034893  p :     0.061787
      px      :     0.015108
      py      :     0.011787
 28 C s       :     2.833976  s :     2.833976
      pz      :     1.064048  p :     3.174429
      px      :     1.093300
      py      :     1.017082
      dz2     :     0.019635  d :     0.072460
      dxz     :     0.005937
      dyz     :     0.014207
      dx2y2   :     0.012800
      dxy     :     0.019881
 29 H s       :     0.907834  s :     0.907834
      pz      :     0.016891  p :     0.073254
      px      :     0.035714
      py      :     0.020648
 30 H s       :     0.911805  s :     0.911805
      pz      :     0.019783  p :     0.064620
      px      :     0.021346
      py      :     0.023492
 31 H s       :     0.906053  s :     0.906053
      pz      :     0.038035  p :     0.067868
      px      :     0.016666
      py      :     0.013167
 32 H s       :     0.896658  s :     0.896658
      pz      :     0.012859  p :     0.076718
      px      :     0.026358
      py      :     0.037501
 33 H s       :     0.888307  s :     0.888307
      pz      :     0.020042  p :     0.066836
      px      :     0.018067
      py      :     0.028727


                      *****************************
                      * MAYER POPULATION ANALYSIS *
                      *****************************

  NA   - Mulliken gross atomic population
  ZA   - Total nuclear charge
  QA   - Mulliken gross atomic charge
  VA   - Mayer's total valence
  BVA  - Mayer's bonded valence
  FA   - Mayer's free valence

  ATOM       NA         ZA         QA         VA         BVA        FA
  0 S     15.9133    16.0000     0.0867     2.4830     2.4830    -0.0000
  1 C      6.1405     6.0000    -0.1405     3.8425     3.8425    -0.0000
  2 C      6.0893     6.0000    -0.0893     3.9837     3.9837    -0.0000
  3 C      5.9863     6.0000     0.0137     3.8926     3.8926     0.0000
  4 C      6.1545     6.0000    -0.1545     3.8968     3.8968    -0.0000
  5 H      0.9504     1.0000     0.0496     0.9946     0.9946    -0.0000
  6 C      5.9227     6.0000     0.0773     3.9411     3.9411    -0.0000
  7 H      0.9583     1.0000     0.0417     0.9874     0.9874    -0.0000
  8 H      0.9859     1.0000     0.0141     0.9916     0.9916    -0.0000
  9 C      6.0631     6.0000    -0.0631     4.0589     4.0589    -0.0000
 10 H      0.9787     1.0000     0.0213     0.9858     0.9858    -0.0000
 11 H      0.9774     1.0000     0.0226     0.9825     0.9825    -0.0000
 12 C      6.0542     6.0000    -0.0542     3.9993     3.9993    -0.0000
 13 H      0.9649     1.0000     0.0351     0.9857     0.9857    -0.0000
 14 H      0.9742     1.0000     0.0258     0.9877     0.9877     0.0000
 15 H      0.9558     1.0000     0.0442     0.9857     0.9857    -0.0000
 16 S     15.8724    16.0000     0.1276     2.5014     2.5014    -0.0000
 17 C      6.1080     6.0000    -0.1080     3.8383     3.8383    -0.0000
 18 C      6.0536     6.0000    -0.0536     3.9660     3.9660     0.0000
 19 C      6.0528     6.0000    -0.0528     4.0493     4.0493     0.0000
 20 C      6.1753     6.0000    -0.1753     3.8724     3.8724     0.0000
 21 H      0.9692     1.0000     0.0308     1.0008     1.0008     0.0000
 22 C      5.9056     6.0000     0.0944     3.9538     3.9538    -0.0000
 23 H      0.9891     1.0000     0.0109     1.0037     1.0037     0.0000
 24 H      1.0014     1.0000    -0.0014     0.9911     0.9911     0.0000
 25 C      5.9936     6.0000     0.0064     4.0729     4.0729     0.0000
 26 H      0.9619     1.0000     0.0381     0.9838     0.9838     0.0000
 27 H      0.9574     1.0000     0.0426     0.9749     0.9749     0.0000
 28 C      6.0872     6.0000    -0.0872     3.9972     3.9972     0.0000
 29 H      0.9854     1.0000     0.0146     0.9871     0.9871     0.0000
 30 H      0.9831     1.0000     0.0169     0.9883     0.9883     0.0000
 31 H      0.9621     1.0000     0.0379     0.9939     0.9939     0.0000
 32 H      0.9481     1.0000     0.0519     1.0023     1.0023     0.0000
 33 H      0.9243     1.0000     0.0757     0.9911     0.9911    -0.0000

  Mayer bond orders larger than 0.100000
B(  0-S ,  1-C ) :   1.1339 B(  0-S ,  4-C ) :   1.1668 B(  1-C ,  2-C ) :   1.6009 
B(  1-C ,  4-C ) :   0.1024 B(  1-C , 32-H ) :   0.9789 B(  2-C ,  3-C ) :   1.2377 
B(  2-C ,  6-C ) :   1.0193 B(  3-C ,  4-C ) :   1.5708 B(  3-C ,  5-H ) :   0.9779 
B(  4-C , 20-C ) :   0.9952 B(  6-C ,  7-H ) :   0.9445 B(  6-C ,  8-H ) :   0.9374 
B(  6-C ,  9-C ) :   1.0499 B(  9-C , 10-H ) :   0.9587 B(  9-C , 11-H ) :   0.9526 
B(  9-C , 12-C ) :   1.0801 B( 12-C , 13-H ) :   0.9745 B( 12-C , 14-H ) :   0.9754 
B( 12-C , 15-H ) :   0.9771 B( 16-S , 17-C ) :   1.1644 B( 16-S , 20-C ) :   1.1545 
B( 17-C , 18-C ) :   1.6117 B( 17-C , 33-H ) :   0.9552 B( 18-C , 19-C ) :   1.2494 
B( 18-C , 21-H ) :   0.9797 B( 19-C , 20-C ) :   1.5919 B( 19-C , 22-C ) :   1.0447 
B( 22-C , 23-H ) :   0.9174 B( 22-C , 24-H ) :   0.9206 B( 22-C , 25-C ) :   1.0717 
B( 25-C , 26-H ) :   0.9552 B( 25-C , 27-H ) :   0.9504 B( 25-C , 28-C ) :   1.0764 
B( 28-C , 29-H ) :   0.9701 B( 28-C , 30-H ) :   0.9727 B( 28-C , 31-H ) :   0.9693 


-------
TIMINGS
-------

Total SCF time: 0 days 0 hours 0 min 19 sec 

Total time                  ....      19.412 sec
Sum of individual times     ....      18.551 sec  ( 95.6%)

Fock matrix formation       ....      16.888 sec  ( 87.0%)
  XC integration            ....       1.498 sec  (  8.9% of F)
    Basis function eval.    ....       0.138 sec  (  9.2% of XC)
    Density eval.           ....       0.101 sec  (  6.7% of XC)
    XC-Functional eval.     ....       0.116 sec  (  7.8% of XC)
    XC-Potential eval.      ....       0.114 sec  (  7.6% of XC)
Diagonalization             ....       0.150 sec  (  0.8%)
Density matrix formation    ....       0.034 sec  (  0.2%)
Population analysis         ....       0.058 sec  (  0.3%)
Initial guess               ....       0.163 sec  (  0.8%)
Orbital Transformation      ....       0.000 sec  (  0.0%)
Orbital Orthonormalization  ....       0.000 sec  (  0.0%)
DIIS solution               ....       0.152 sec  (  0.8%)
SOSCF solution              ....       0.127 sec  (  0.7%)
Grid generation             ....       0.980 sec  (  5.0%)


-------------------------------------------------------------------------------
                          DFT DISPERSION CORRECTION                            
                                                                               
                              DFTD3 V3.1  Rev 1                                
                              USING zero damping                               
-------------------------------------------------------------------------------
The omegaB97X-D3 functional is recognized. Fit by Chai et al.
Active option DFTDOPT                   ...         3   

molecular C6(AA) [au] = 14189.537011 


            DFT-D V3
 parameters
 s6 scaling factor         :     1.0000 
 rs6 scaling factor        :     1.2810 
 s8 scaling factor         :     1.0000 
 rs8 scaling factor        :     1.0940 
 Damping factor alpha6     :    14.0000 
 Damping factor alpha8     :    16.0000 
 ad hoc parameters k1-k3   :    16.0000     1.3333    -4.0000 

 Edisp/kcal,au: -9.007571926334  -0.014354478040 
 E6   /kcal   :  -4.086906744 
 E8   /kcal   :  -4.920665183 
 % E8         :  54.628097592 

-------------------------   ----------------
Dispersion correction           -0.014354478
-------------------------   ----------------


-------------------------   --------------------
FINAL SINGLE POINT ENERGY     -1339.871325350344
-------------------------   --------------------


                            ***************************************
                            *     ORCA property calculations      *
                            ***************************************

                                    ---------------------
                                    Active property flags
                                    ---------------------
   (+) Dipole Moment


------------------------------------------------------------------------------
                       ORCA ELECTRIC PROPERTIES CALCULATION
------------------------------------------------------------------------------

Dipole Moment Calculation                       ... on
Quadrupole Moment Calculation                   ... off
Polarizability Calculation                      ... off
GBWName                                         ... config_1434.gbw
Electron density file                           ... config_1434.scfp
The origin for moment calculation is the CENTER OF MASS  = (-74.676399, 16.857239 49.585774)

-------------
DIPOLE MOMENT
-------------
                                X             Y             Z
Electronic contribution:      2.38904      -0.74246     -21.98878
Nuclear contribution   :     -2.46083       0.60368      22.58916
                        -----------------------------------------
Total Dipole Moment    :     -0.07178      -0.13878       0.60037
                        -----------------------------------------
Magnitude (a.u.)       :      0.62037
Magnitude (Debye)      :      1.57685



--------------------
Rotational spectrum 
--------------------
 
Rotational constants in cm-1:     0.021065     0.007291     0.006654 
Rotational constants in MHz :   631.521822   218.582068   199.478257 

 Dipole components along the rotational axes: 
x,y,z [a.u.] :     0.105337    -0.515920     0.328007 
x,y,z [Debye]:     0.267745    -1.311364     0.833728 

 

Timings for individual modules:

Sum of individual times         ...       20.590 sec (=   0.343 min)
GTO integral calculation        ...        0.785 sec (=   0.013 min)   3.8 %
SCF iterations                  ...       19.805 sec (=   0.330 min)  96.2 %
                             ****ORCA TERMINATED NORMALLY****
TOTAL RUN TIME: 0 days 0 hours 0 minutes 21 seconds 283 msec
