
                                 *****************
                                 * O   R   C   A *
                                 *****************

           --- An Ab Initio, DFT and Semiempirical electronic structure package ---

                  #######################################################
                  #                        -***-                        #
                  #          Department of theory and spectroscopy      #
                  #               Directorship: Frank Neese             #
                  #        Max Planck Institute fuer Kohlenforschung    #
                  #                Kaiser Wilhelm Platz 1               #
                  #                 D-45470 Muelheim/Ruhr               #
                  #                      Germany                        #
                  #                                                     #
                  #                  All rights reserved                #
                  #                        -***-                        #
                  #######################################################


                         Program Version 4.2.1 -  RELEASE  -


 With contributions from (in alphabetic order):
   Daniel Aravena         : Magnetic Suceptibility
   Michael Atanasov       : Ab Initio Ligand Field Theory (pilot matlab implementation)
   Alexander A. Auer      : GIAO ZORA, VPT2
   Ute Becker             : Parallelization
   Giovanni Bistoni       : ED, misc. LED, open-shell LED, HFLD
   Martin Brehm           : Molecular dynamics
   Dmytro Bykov           : SCF Hessian
   Vijay G. Chilkuri      : MRCI spin determinant printing, contributions to CSF-ICE
   Dipayan Datta          : RHF DLPNO-CCSD density
   Achintya Kumar Dutta   : EOM-CC, STEOM-CC
   Dmitry Ganyushin       : Spin-Orbit,Spin-Spin,Magnetic field MRCI
   Miquel Garcia          : C-PCM Hessian, Gaussian charge scheme
   Yang Guo               : DLPNO-NEVPT2, CIM, IAO-localization
   Andreas Hansen         : Spin unrestricted coupled pair/coupled cluster methods
   Benjamin Helmich-Paris : CASSCF linear response (MC-RPA)
   Lee Huntington         : MR-EOM, pCC
   Robert Izsak           : Overlap fitted RIJCOSX, COSX-SCS-MP3, EOM
   Christian Kollmar      : KDIIS, OOCD, Brueckner-CCSD(T), CCSD density
   Simone Kossmann        : Meta GGA functionals, TD-DFT gradient, OOMP2, MP2 Hessian
   Martin Krupicka        : AUTO-CI
   Lucas Lang             : DCDCAS
   Dagmar Lenk            : GEPOL surface, SMD
   Dimitrios Liakos       : Extrapolation schemes; Compound Job, initial MDCI parallelization
   Dimitrios Manganas     : Further ROCIS development; embedding schemes
   Dimitrios Pantazis     : SARC Basis sets
   Taras Petrenko         : DFT Hessian,TD-DFT gradient, ASA, ECA, R-Raman, ABS, FL, XAS/XES, NRVS
   Peter Pinski           : DLPNO-MP2, DLPNO-MP2 Gradient
   Christoph Reimann      : Effective Core Potentials
   Marius Retegan         : Local ZFS, SOC
   Christoph Riplinger    : Optimizer, TS searches, QM/MM, DLPNO-CCSD(T), (RO)-DLPNO pert. Triples
   Tobias Risthaus        : Range-separated hybrids, TD-DFT gradient, RPA, STAB
   Michael Roemelt        : Original ROCIS implementation
   Masaaki Saitow         : Open-shell DLPNO-CCSD energy and density
   Barbara Sandhoefer     : DKH picture change effects
   Avijit Sen             : IP-ROCIS
   Kantharuban Sivalingam : CASSCF convergence, NEVPT2, FIC-MRCI
   Bernardo de Souza      : ESD, SOC TD-DFT
   Georgi Stoychev        : AutoAux, RI-MP2 NMR
   Willem Van den Heuvel  : Paramagnetic NMR
   Boris Wezisla          : Elementary symmetry handling
   Frank Wennmohs         : Technical directorship


 We gratefully acknowledge several colleagues who have allowed us to
 interface, adapt or use parts of their codes:
   Stefan Grimme, W. Hujo, H. Kruse,             : VdW corrections, initial TS optimization,
                  C. Bannwarth                     DFT functionals, gCP, sTDA/sTD-DF
   Ed Valeev, F. Pavosevic, A. Kumar             : LibInt (2-el integral package), F12 methods
   Garnet Chan, S. Sharma, J. Yang, R. Olivares  : DMRG
   Ulf Ekstrom                                   : XCFun DFT Library
   Mihaly Kallay                                 : mrcc  (arbitrary order and MRCC methods)
   Andreas Klamt, Michael Diedenhofen            : otool_cosmo (COSMO solvation model)
   Jiri Pittner, Ondrej Demel                    : Mk-CCSD
   Frank Weinhold                                : gennbo (NPA and NBO analysis)
   Christopher J. Cramer and Donald G. Truhlar   : smd solvation model
   Lars Goerigk                                  : TD-DFT with DH, B97 family of functionals
   V. Asgeirsson, H. Jonsson                     : NEB implementation
   FAccTs GmbH                                   : IRC, NEB, NEB-TS, Multilevel, MM, QM/MM, CI optimization
   S Lehtola, MJT Oliveira, MAL Marques          : LibXC Library


 Your calculation uses the libint2 library for the computation of 2-el integrals
 For citations please refer to: http://libint.valeyev.net

 Your ORCA version has been built with support for libXC version: 4.2.3
 For citations please refer to: https://tddft.org/programs/libxc/

 This ORCA versions uses:
   CBLAS   interface :  Fast vector & matrix operations
   LAPACKE interface :  Fast linear algebra routines
   SCALAPACK package :  Parallel linear algebra routines


Your calculation utilizes the atom-pairwise dispersion correction
with the zero-damping scheme (D30)
Cite in your paper:
S.Grimme, J.Antony, S.Ehrlich and H.Krieg, J.Chem.Phys., 132, (2010), 154104 
   

XCFun DFT library Copyright 2009-2010 Ulf Ekstrom and contributors.
See http://admol.org/xcfun for more information. This is free soft-
ware; see the source code for copying conditions. There is ABSOLUTELY
NO WARRANTY; not even for MERCHANTABILITY or FITNESS FOR A PARTICULAR
PURPOSE. For details see the documentation. Scientific users of this 
library should cite U. Ekstrom, L. Visscher, R. Bast, A. J. Thorvald-
sen and K. Ruud; J.Chem.Theor.Comp. 2010, DOI: 10.1021/ct100117s
XCFun Version 0.99 
----- Orbital basis set information -----
Your calculation utilizes the basis: def2-SVP
   F. Weigend and R. Ahlrichs, Phys. Chem. Chem. Phys. 7, 3297 (2005).

================================================================================
                                        WARNINGS
                       Please study these warnings very carefully!
================================================================================


INFO   : the flag for use of LIBINT has been found!

================================================================================
                                       INPUT FILE
================================================================================
NAME = config_7950.inp
|  1> ! wB97X-D3 SP def2-SVP
|  2> %pal
|  3> nprocs 24
|  4> end
|  5> 
|  6> * xyz 0 1
|  7> S 	 -80.8803 	 -42.8172 	 -85.0246 	 
|  8> C 	 -80.6605 	 -42.0308 	 -83.4176 	 
|  9> C 	 -81.06 	 -42.8476 	 -82.3897 	 
| 10> C 	 -81.6165 	 -44.1022 	 -82.8906 	 
| 11> C 	 -81.6352 	 -44.1801 	 -84.2705 	 
| 12> H 	 -81.9011 	 -44.9545 	 -82.3498 	 
| 13> C 	 -81.2273 	 -42.424 	 -80.9048 	 
| 14> H 	 -82.0852 	 -41.779 	 -81.0029 	 
| 15> H 	 -80.3506 	 -41.7768 	 -80.6901 	 
| 16> C 	 -81.438 	 -43.5152 	 -79.7916 	 
| 17> H 	 -82.1834 	 -44.1658 	 -80.322 	 
| 18> H 	 -80.4797 	 -44.0494 	 -79.685 	 
| 19> C 	 -81.8671 	 -43.005 	 -78.4115 	 
| 20> H 	 -80.8673 	 -42.6044 	 -77.9873 	 
| 21> H 	 -82.62 	 -42.1982 	 -78.4868 	 
| 22> H 	 -82.4279 	 -43.697 	 -77.8157 	 
| 23> S 	 -83.5628 	 -46.0058 	 -85.1162 	 
| 24> C 	 -83.0068 	 -47.3233 	 -86.1598 	 
| 25> C 	 -81.6555 	 -47.2637 	 -86.3682 	 
| 26> C 	 -81.0234 	 -46.2057 	 -85.7297 	 
| 27> C 	 -81.8864 	 -45.4043 	 -85.0116 	 
| 28> H 	 -81.1108 	 -47.9754 	 -87.0017 	 
| 29> C 	 -79.4954 	 -45.9966 	 -85.6773 	 
| 30> H 	 -79.1869 	 -45.1295 	 -85.1225 	 
| 31> H 	 -79.2484 	 -45.5956 	 -86.6587 	 
| 32> C 	 -78.4329 	 -47.1358 	 -85.4733 	 
| 33> H 	 -77.4561 	 -46.6338 	 -85.4974 	 
| 34> H 	 -78.4617 	 -47.9754 	 -86.2142 	 
| 35> C 	 -78.4492 	 -47.7161 	 -84.1056 	 
| 36> H 	 -77.6497 	 -48.4159 	 -83.9926 	 
| 37> H 	 -79.3227 	 -48.2091 	 -83.8329 	 
| 38> H 	 -78.2129 	 -47.0337 	 -83.2932 	 
| 39> H 	 -80.168 	 -41.1361 	 -83.2251 	 
| 40> H 	 -83.7094 	 -48.0148 	 -86.695 	 
| 41> *
| 42> 
| 43>                          ****END OF INPUT****
================================================================================

                       ****************************
                       * Single Point Calculation *
                       ****************************

---------------------------------
CARTESIAN COORDINATES (ANGSTROEM)
---------------------------------
  S    -80.880300  -42.817200  -85.024600
  C    -80.660500  -42.030800  -83.417600
  C    -81.060000  -42.847600  -82.389700
  C    -81.616500  -44.102200  -82.890600
  C    -81.635200  -44.180100  -84.270500
  H    -81.901100  -44.954500  -82.349800
  C    -81.227300  -42.424000  -80.904800
  H    -82.085200  -41.779000  -81.002900
  H    -80.350600  -41.776800  -80.690100
  C    -81.438000  -43.515200  -79.791600
  H    -82.183400  -44.165800  -80.322000
  H    -80.479700  -44.049400  -79.685000
  C    -81.867100  -43.005000  -78.411500
  H    -80.867300  -42.604400  -77.987300
  H    -82.620000  -42.198200  -78.486800
  H    -82.427900  -43.697000  -77.815700
  S    -83.562800  -46.005800  -85.116200
  C    -83.006800  -47.323300  -86.159800
  C    -81.655500  -47.263700  -86.368200
  C    -81.023400  -46.205700  -85.729700
  C    -81.886400  -45.404300  -85.011600
  H    -81.110800  -47.975400  -87.001700
  C    -79.495400  -45.996600  -85.677300
  H    -79.186900  -45.129500  -85.122500
  H    -79.248400  -45.595600  -86.658700
  C    -78.432900  -47.135800  -85.473300
  H    -77.456100  -46.633800  -85.497400
  H    -78.461700  -47.975400  -86.214200
  C    -78.449200  -47.716100  -84.105600
  H    -77.649700  -48.415900  -83.992600
  H    -79.322700  -48.209100  -83.832900
  H    -78.212900  -47.033700  -83.293200
  H    -80.168000  -41.136100  -83.225100
  H    -83.709400  -48.014800  -86.695000

----------------------------
CARTESIAN COORDINATES (A.U.)
----------------------------
  NO LB      ZA    FRAG     MASS         X           Y           Z
   0 S    16.0000    0    32.060  -152.841617  -80.912782  -160.673209
   1 C     6.0000    0    12.011  -152.426255  -79.426701  -157.636419
   2 C     6.0000    0    12.011  -153.181200  -80.970229  -155.693969
   3 C     6.0000    0    12.011  -154.232833  -83.341080  -156.640533
   4 C     6.0000    0    12.011  -154.268171  -83.488290  -159.248166
   5 H     1.0000    0     1.008  -154.770649  -84.951693  -155.618569
   6 C     6.0000    0    12.011  -153.497352  -80.169742  -152.887915
   7 H     1.0000    0     1.008  -155.118548  -78.950868  -153.073297
   8 H     1.0000    0     1.008  -151.840629  -78.946711  -152.482191
   9 C     6.0000    0    12.011  -153.895517  -82.231811  -150.784272
  10 H     1.0000    0     1.008  -155.304119  -83.461266  -151.786583
  11 H     1.0000    0     1.008  -152.084592  -83.241302  -150.582827
  12 C     6.0000    0    12.011  -154.706398  -81.267672  -148.176261
  13 H     1.0000    0     1.008  -152.817050  -80.510648  -147.374639
  14 H     1.0000    0     1.008  -156.129173  -79.743041  -148.318557
  15 H     1.0000    0     1.008  -155.766157  -82.575363  -147.050362
  16 S    16.0000    0    32.060  -157.910807  -86.938363  -160.846308
  17 C     6.0000    0    12.011  -156.860119  -89.428077  -162.818426
  18 C     6.0000    0    12.011  -154.306532  -89.315449  -163.212245
  19 C     6.0000    0    12.011  -153.112036  -87.316119  -162.005655
  20 C     6.0000    0    12.011  -154.742870  -85.801692  -160.648642
  21 H     1.0000    0     1.008  -153.277199  -90.660367  -164.409386
  22 C     6.0000    0    12.011  -150.224535  -86.920977  -161.906633
  23 H     1.0000    0     1.008  -149.641554  -85.282396  -160.858213
  24 H     1.0000    0     1.008  -149.757773  -86.163197  -163.761210
  25 C     6.0000    0    12.011  -148.216701  -89.073753  -161.521129
  26 H     1.0000    0     1.008  -146.370816  -88.125111  -161.566671
  27 H     1.0000    0     1.008  -148.271125  -90.660367  -162.921227
  28 C     6.0000    0    12.011  -148.247503  -90.170361  -158.936550
  29 H     1.0000    0     1.008  -146.736667  -91.492792  -158.723011
  30 H     1.0000    0     1.008  -149.898179  -91.101996  -158.421222
  31 H     1.0000    0     1.008  -147.800961  -88.880812  -157.401337
  32 H     1.0000    0     1.008  -151.495565  -77.735963  -157.272646
  33 H     1.0000    0     1.008  -158.187841  -90.734822  -163.829807

--------------------------------
INTERNAL COORDINATES (ANGSTROEM)
--------------------------------
 S      0   0   0     0.000000000000     0.00000000     0.00000000
 C      1   0   0     1.802549860614     0.00000000     0.00000000
 C      2   1   0     1.372348680183   111.87563206     0.00000000
 C      3   2   1     1.461031902458   111.41870706   357.08402428
 C      4   3   2     1.382223610708   113.31663332   359.12920465
 H      4   3   2     1.048750251490   128.64041883   172.48905913
 C      3   2   1     1.553175540626   125.81101162   190.41230859
 H      7   3   2     1.077794516594    99.31923290    68.95310490
 H      7   3   2     1.110660533196   104.99360595   318.11575354
 C      7   3   2     1.572999100445   120.12021462   191.10232802
 H     10   7   3     1.122597737393    99.01018944   316.22269085
 H     10   7   3     1.102303084455   106.74870834    70.39104606
 C     10   7   3     1.532679633844   116.34789859   191.67017654
 H     13  10   7     1.157594937791   101.73366145   282.28442958
 H     13  10   7     1.106098883464   111.84365393    40.95973859
 H     13  10   7     1.071605468444   115.60676109   152.95268430
 S      5   4   3     2.786401037180   110.44363792   203.02436610
 C     17   5   4     1.770322911223   116.69704369   235.90412432
 C     18  17   5     1.368573859899   111.55898943     1.84179839
 C     19  18  17     1.388018969611   114.38060235     0.02725590
 C     20  19  18     1.379376152469   113.41651000   359.46249893
 H     19  18  17     1.097514113804   123.34605875   181.22633300
 C     20  19  18     1.543130768924   124.73896110   173.19334756
 H     23  20  19     1.074633751564   114.27557727   181.01063254
 H     23  20  19     1.088556824424   104.12176222    77.71000715
 C     23  20  19     1.571082076150   125.15631026   319.79352602
 H     26  23  20     1.098509467415   105.49456499   179.48798775
 H     26  23  20     1.120129639819   116.11874183    56.70538706
 C     26  23  20     1.485805192480   113.28501589   290.26766136
 H     29  26  23     1.068498614880   110.17782837   185.43141880
 H     29  26  23     1.039430873122   115.84658949    63.97706394
 H     29  26  23     1.086968817400   116.12997999   297.84984550
 H      2   1   3     1.039278879801   126.76215815   171.15328027
 H     18  17   5     1.121721021467   122.91030879   190.30073703

---------------------------
INTERNAL COORDINATES (A.U.)
---------------------------
 S      0   0   0     0.000000000000     0.00000000     0.00000000
 C      1   0   0     3.406325579299     0.00000000     0.00000000
 C      2   1   0     2.593363165794   111.87563206     0.00000000
 C      3   2   1     2.760950168568   111.41870706   357.08402428
 C      4   3   2     2.612024080079   113.31663332   359.12920465
 H      4   3   2     1.981850758197   128.64041883   172.48905913
 C      3   2   1     2.935076409689   125.81101162   190.41230859
 H      7   3   2     2.036736465005    99.31923290    68.95310490
 H      7   3   2     2.098844235496   104.99360595   318.11575354
 C      7   3   2     2.972537508745   120.12021462   191.10232802
 H     10   7   3     2.121402282233    99.01018944   316.22269085
 H     10   7   3     2.083050946197   106.74870834    70.39104606
 C     10   7   3     2.896344759004   116.34789859   191.67017654
 H     13  10   7     2.187537406439   101.73366145   282.28442958
 H     13  10   7     2.090223966783   111.84365393    40.95973859
 H     13  10   7     2.025040858972   115.60676109   152.95268430
 S      5   4   3     5.265534859545   110.44363792   203.02436610
 C     17   5   4     3.345425470817   116.69704369   235.90412432
 C     18  17   5     2.586229789253   111.55898943     1.84179839
 C     19  18  17     2.622975721252   114.38060235     0.02725590
 C     20  19  18     2.606643163828   113.41651000   359.46249893
 H     19  18  17     2.074001103204   123.34605875   181.22633300
 C     20  19  18     2.916094542094   124.73896110   173.19334756
 H     23  20  19     2.030763484724   114.27557727   181.01063254
 H     23  20  19     2.057074279372   104.12176222    77.71000715
 C     23  20  19     2.968914857836   125.15631026   319.79352602
 H     26  23  20     2.075882048934   105.49456499   179.48798775
 H     26  23  20     2.116738253745   116.11874183    56.70538706
 C     26  23  20     2.807764902145   113.28501589   290.26766136
 H     29  26  23     2.019169756597   110.17782837   185.43141880
 H     29  26  23     1.964239685344   115.84658949    63.97706394
 H     29  26  23     2.054073380998   116.12997999   297.84984550
 H      2   1   3     1.963952459592   126.76215815   171.15328027
 H     18  17   5     2.119745529234   122.91030879   190.30073703

---------------------
BASIS SET INFORMATION
---------------------
There are 3 groups of distinct atoms

 Group   1 Type S   : 10s7p1d contracted to 4s3p1d pattern {5311/511/1}
 Group   2 Type C   : 7s4p1d contracted to 3s2p1d pattern {511/31/1}
 Group   3 Type H   : 4s1p contracted to 2s1p pattern {31/1}

Atom   0S    basis set group =>   1
Atom   1C    basis set group =>   2
Atom   2C    basis set group =>   2
Atom   3C    basis set group =>   2
Atom   4C    basis set group =>   2
Atom   5H    basis set group =>   3
Atom   6C    basis set group =>   2
Atom   7H    basis set group =>   3
Atom   8H    basis set group =>   3
Atom   9C    basis set group =>   2
Atom  10H    basis set group =>   3
Atom  11H    basis set group =>   3
Atom  12C    basis set group =>   2
Atom  13H    basis set group =>   3
Atom  14H    basis set group =>   3
Atom  15H    basis set group =>   3
Atom  16S    basis set group =>   1
Atom  17C    basis set group =>   2
Atom  18C    basis set group =>   2
Atom  19C    basis set group =>   2
Atom  20C    basis set group =>   2
Atom  21H    basis set group =>   3
Atom  22C    basis set group =>   2
Atom  23H    basis set group =>   3
Atom  24H    basis set group =>   3
Atom  25C    basis set group =>   2
Atom  26H    basis set group =>   3
Atom  27H    basis set group =>   3
Atom  28C    basis set group =>   2
Atom  29H    basis set group =>   3
Atom  30H    basis set group =>   3
Atom  31H    basis set group =>   3
Atom  32H    basis set group =>   3
Atom  33H    basis set group =>   3


           ************************************************************
           *        Program running with 24 parallel MPI-processes    *
           *              working on a common directory               *
           ************************************************************
------------------------------------------------------------------------------
                           ORCA GTO INTEGRAL CALCULATION
------------------------------------------------------------------------------

                         BASIS SET STATISTICS AND STARTUP INFO

 # of primitive gaussian shells          ...  294
 # of primitive gaussian functions       ...  534
 # of contracted shells                  ...  154
 # of contracted basis functions         ...  322
 Highest angular momentum                ...    2
 Maximum contraction depth               ...    5
 Integral package used                   ... LIBINT
 Integral threshhold            Thresh   ...  1.000e-10
 Primitive cut-off              TCut     ...  1.000e-11


------------------------------ INTEGRAL EVALUATION ----------------------------


 * One electron integrals 
 Pre-screening matrix                    ... done
 Shell pair data                         ... done (   0.003 sec)



           ************************************************************
           *        Program running with 24 parallel MPI-processes    *
           *              working on a common directory               *
           ************************************************************
-------------------------------------------------------------------------------
                                 ORCA SCF
-------------------------------------------------------------------------------

------------
SCF SETTINGS
------------
Hamiltonian:
 Density Functional     Method          .... DFT(GTOs)
 Exchange Functional    Exchange        .... WB97X-D3
 Correlation Functional Correlation     .... WB97X-D3
 Gradients option       PostSCFGGA      .... off
 Hybrid DFT is turned on
   Fraction HF Exchange ScalHFX         ....  0.195728
   Scaling of DF-GGA-X  ScalDFX         ....  0.000000
   Scaling of DF-GGA-C  ScalDFC         ....  1.000000
   Scaling of DF-LDA-C  ScalLDAC        ....  1.000000
   Perturbative correction              ....  0.000000
   Density functional embedding theory  .... OFF
 Long-range corrected/Screened/Range-Separated Hybrid DFT is turned on
   Amount of maximum screened exact exchange              ....  0.804272
   Range separation parameter mu (erf(mu*r12)/r12)        ....  0.250000


General Settings:
 Integral files         IntName         .... config_7950
 Hartree-Fock type      HFTyp           .... RHF
 Total Charge           Charge          ....    0
 Multiplicity           Mult            ....    1
 Number of Electrons    NEL             ....  134
 Basis Dimension        Dim             ....  322
 Nuclear Repulsion      ENuc            ....   1274.5649411218 Eh

Convergence Acceleration:
 DIIS                   CNVDIIS         .... on
   Start iteration      DIISMaxIt       ....    12
   Startup error        DIISStart       ....  0.200000
   # of expansion vecs  DIISMaxEq       ....     5
   Bias factor          DIISBfac        ....   1.050
   Max. coefficient     DIISMaxC        ....  10.000
 Newton-Raphson         CNVNR           .... off
 SOSCF                  CNVSOSCF        .... on
   Start iteration      SOSCFMaxIt      ....   150
   Startup grad/error   SOSCFStart      ....  0.003300
 Level Shifting         CNVShift        .... on
   Level shift para.    LevelShift      ....    0.2500
   Turn off err/grad.   ShiftErr        ....    0.0010
 Zerner damping         CNVZerner       .... off
 Static damping         CNVDamp         .... on
   Fraction old density DampFac         ....    0.7000
   Max. Damping (<1)    DampMax         ....    0.9800
   Min. Damping (>=0)   DampMin         ....    0.0000
   Turn off err/grad.   DampErr         ....    0.1000
 Fernandez-Rico         CNVRico         .... off

SCF Procedure:
 Maximum # iterations   MaxIter         ....   125
 SCF integral mode      SCFMode         .... Direct
   Integral package                     .... LIBINT
 Reset frequency        DirectResetFreq ....    20
 Integral Threshold     Thresh          ....  1.000e-10 Eh
 Primitive CutOff       TCut            ....  1.000e-11 Eh

Convergence Tolerance:
 Convergence Check Mode ConvCheckMode   .... Total+1el-Energy
 Convergence forced     ConvForced      .... 0
 Energy Change          TolE            ....  1.000e-06 Eh
 1-El. energy change                    ....  1.000e-03 Eh
 Orbital Gradient       TolG            ....  5.000e-05
 Orbital Rotation angle TolX            ....  5.000e-05
 DIIS Error             TolErr          ....  1.000e-06


Diagonalization of the overlap matrix:
Smallest eigenvalue                        ... 6.079e-04
Time for diagonalization                   ...    0.014 sec
Threshold for overlap eigenvalues          ... 1.000e-08
Number of eigenvalues below threshold      ... 0
Time for construction of square roots      ...    0.027 sec
Total time needed                          ...    0.041 sec

-------------------
DFT GRID GENERATION
-------------------

General Integration Accuracy     IntAcc      ...  4.340
Radial Grid Type                 RadialGrid  ... Gauss-Chebyshev
Angular Grid (max. acc.)         AngularGrid ... Lebedev-110
Angular grid pruning method      GridPruning ... 3 (G Style)
Weight generation scheme         WeightScheme... Becke
Basis function cutoff            BFCut       ...    1.0000e-10
Integration weight cutoff        WCut        ...    1.0000e-14
Grids for H and He will be reduced by one unit

# of grid points (after initial pruning)     ...  41088 (   0.0 sec)
# of grid points (after weights+screening)   ...  36980 (   0.0 sec)
nearest neighbour list constructed           ...    0.0 sec
Grid point re-assignment to atoms done       ...    0.0 sec
Grid point division into batches done        ...    0.0 sec
Reduced shell lists constructed in    0.1 sec

Total number of grid points                  ...    36980
Total number of batches                      ...      594
Average number of points per batch           ...       62
Average number of grid points per atom       ...     1088
Average number of shells per batch           ...    75.08 (48.75%)
Average number of basis functions per batch  ...   149.15 (46.32%)
Average number of large shells per batch     ...    48.31 (64.34%)
Average number of large basis fcns per batch ...    98.46 (66.01%)
Maximum spatial batch extension              ...  21.68, 12.80, 18.10 au
Average spatial batch extension              ...   0.17,  0.14,  0.17 au

Time for grid setup =    0.148 sec

------------------------------
INITIAL GUESS: MODEL POTENTIAL
------------------------------
Loading Hartree-Fock densities                     ... done
Calculating cut-offs                               ... done
Setting up the integral package                    ... done
Initializing the effective Hamiltonian             ... done
Starting the Coulomb interaction                   ... done (   0.0 sec)
Reading the grid                                   ... done
Mapping shells                                     ... done
Starting the XC term evaluation                    ... done (   0.0 sec)
  promolecular density results
     # of electrons  =    134.003479008
     EX              =   -126.695861469
     EC              =     -4.612319051
     EX+EC           =   -131.308180520
Transforming the Hamiltonian                       ... done (   0.0 sec)
Diagonalizing the Hamiltonian                      ... done (   0.0 sec)
Back transforming the eigenvectors                 ... done (   0.0 sec)
Now organizing SCF variables                       ... done
                      ------------------
                      INITIAL GUESS DONE (   0.3 sec)
                      ------------------
--------------
SCF ITERATIONS
--------------
ITER       Energy         Delta-E        Max-DP      RMS-DP      [F,P]     Damp
               ***  Starting incremental Fock matrix formation  ***
  0  -1339.4099259991   0.000000000000 0.07065662  0.00155300  0.1769367 0.7000
  1  -1339.5954975970  -0.185571597868 0.04703919  0.00114621  0.1063969 0.7000
                               ***Turning on DIIS***
  2  -1339.6867666624  -0.091269065448 0.08096665  0.00220037  0.0548960 0.0000
  3  -1339.8249300616  -0.138163399141 0.04572379  0.00092464  0.0395909 0.0000
  4  -1339.8537430376  -0.028812976034 0.00735754  0.00019848  0.0072553 0.0000
                      *** Initiating the SOSCF procedure ***
                           *** Shutting down DIIS ***
                      *** Re-Reading the Fockian *** 
                      *** Removing any level shift *** 
ITER      Energy       Delta-E        Grad      Rot      Max-DP    RMS-DP
  5  -1339.85467215  -0.0009291101  0.001490  0.001490  0.003595  0.000101
               *** Restarting incremental Fock matrix formation ***
  6  -1339.85485812  -0.0001859711  0.001380  0.003730  0.002449  0.000065
  7  -1339.85492389  -0.0000657716  0.000607  0.004087  0.002843  0.000067
  8  -1339.85494290  -0.0000190076  0.000251  0.000572  0.000721  0.000020
  9  -1339.85494699  -0.0000040930  0.000146  0.000408  0.000256  0.000008
                 **** Energy Check signals convergence ****
              ***Rediagonalizing the Fockian in SOSCF/NRSCF***

               *****************************************************
               *                     SUCCESS                       *
               *           SCF CONVERGED AFTER  10 CYCLES          *
               *****************************************************

Setting up the final grid:

General Integration Accuracy     IntAcc      ...  4.670
Radial Grid Type                 RadialGrid  ... Gauss-Chebyshev
Angular Grid (max. acc.)         AngularGrid ... Lebedev-302
Angular grid pruning method      GridPruning ... 3 (G Style)
Weight generation scheme         WeightScheme... Becke
Basis function cutoff            BFCut       ...    1.0000e-10
Integration weight cutoff        WCut        ...    1.0000e-14
Grids for H and He will be reduced by one unit

# of grid points (after initial pruning)     ... 161752 (   0.0 sec)
# of grid points (after weights+screening)   ... 143023 (   0.1 sec)
nearest neighbour list constructed           ...    0.0 sec
Grid point re-assignment to atoms done       ...    0.0 sec
Grid point division into batches done        ...    0.4 sec
Reduced shell lists constructed in    0.5 sec

Total number of grid points                  ...   143023
Total number of batches                      ...     2251
Average number of points per batch           ...       63
Average number of grid points per atom       ...     4207
Average number of shells per batch           ...    68.20 (44.29%)
Average number of basis functions per batch  ...   134.58 (41.79%)
Average number of large shells per batch     ...    42.19 (61.86%)
Average number of large basis fcns per batch ...    86.04 (63.93%)
Maximum spatial batch extension              ...  15.60, 11.79, 12.47 au
Average spatial batch extension              ...   0.11,  0.10,  0.10 au

Final grid set up in    0.8 sec
Final integration                            ... done (   0.2 sec)
Change in XC energy                          ...     0.008967188
Integrated number of electrons               ...   133.999995492
Previous integrated no of electrons          ...   134.004255979

----------------
TOTAL SCF ENERGY
----------------

Total Energy       :        -1339.84598019 Eh          -36459.06266 eV

Components:
Nuclear Repulsion  :         1274.56494112 Eh           34682.67528 eV
Electronic Energy  :        -2614.41092131 Eh          -71141.73794 eV
One Electron Energy:        -4365.85036173 Eh         -118800.82806 eV
Two Electron Energy:         1751.43944042 Eh           47659.09012 eV

Virial components:
Potential Energy   :        -2671.23058721 Eh          -72687.87966 eV
Kinetic Energy     :         1331.38460702 Eh           36228.81699 eV
Virial Ratio       :            2.00635532


DFT components:
N(Alpha)           :       66.999997746011 electrons
N(Beta)            :       66.999997746011 electrons
N(Total)           :      133.999995492021 electrons
E(XC)              :      -94.227227922324 Eh       
DFET-embed. en.    :        0.000000000000 Eh       

---------------
SCF CONVERGENCE
---------------

  Last Energy change         ...   -3.8536e-07  Tolerance :   1.0000e-06
  Last MAX-Density change    ...    1.5616e-04  Tolerance :   1.0000e-05
  Last RMS-Density change    ...    3.7416e-06  Tolerance :   1.0000e-06
  Last Orbital Gradient      ...    8.1389e-05  Tolerance :   5.0000e-05
  Last Orbital Rotation      ...    1.9561e-04  Tolerance :   5.0000e-05

             **** THE GBW FILE WAS UPDATED (config_7950.gbw) ****
             **** DENSITY FILE WAS UPDATED (config_7950.scfp) ****
             **** ENERGY FILE WAS UPDATED (config_7950.en.tmp) ****
             **** THE GBW FILE WAS UPDATED (config_7950.gbw) ****
             **** DENSITY FILE WAS UPDATED (config_7950.scfp) ****
----------------
ORBITAL ENERGIES
----------------

  NO   OCC          E(Eh)            E(eV) 
   0   2.0000     -88.968411     -2420.9535 
   1   2.0000     -88.965366     -2420.8707 
   2   2.0000     -10.325369      -280.9676 
   3   2.0000     -10.323646      -280.9207 
   4   2.0000     -10.320885      -280.8456 
   5   2.0000     -10.311580      -280.5924 
   6   2.0000     -10.307394      -280.4785 
   7   2.0000     -10.300581      -280.2931 
   8   2.0000     -10.299059      -280.2516 
   9   2.0000     -10.297819      -280.2179 
  10   2.0000     -10.291351      -280.0419 
  11   2.0000     -10.290960      -280.0313 
  12   2.0000     -10.290906      -280.0298 
  13   2.0000     -10.290796      -280.0268 
  14   2.0000     -10.288144      -279.9546 
  15   2.0000     -10.259324      -279.1704 
  16   2.0000      -8.082158      -219.9267 
  17   2.0000      -8.079285      -219.8485 
  18   2.0000      -6.040770      -164.3777 
  19   2.0000      -6.037717      -164.2946 
  20   2.0000      -6.036854      -164.2711 
  21   2.0000      -6.033993      -164.1933 
  22   2.0000      -6.032804      -164.1609 
  23   2.0000      -6.030096      -164.0873 
  24   2.0000      -1.003895       -27.3174 
  25   2.0000      -0.979937       -26.6654 
  26   2.0000      -0.906297       -24.6616 
  27   2.0000      -0.903474       -24.5848 
  28   2.0000      -0.870100       -23.6766 
  29   2.0000      -0.853450       -23.2236 
  30   2.0000      -0.843807       -22.9612 
  31   2.0000      -0.813766       -22.1437 
  32   2.0000      -0.785282       -21.3686 
  33   2.0000      -0.774787       -21.0830 
  34   2.0000      -0.709496       -19.3064 
  35   2.0000      -0.696280       -18.9467 
  36   2.0000      -0.689081       -18.7509 
  37   2.0000      -0.660174       -17.9643 
  38   2.0000      -0.638398       -17.3717 
  39   2.0000      -0.613269       -16.6879 
  40   2.0000      -0.597894       -16.2695 
  41   2.0000      -0.570851       -15.5336 
  42   2.0000      -0.560783       -15.2597 
  43   2.0000      -0.549771       -14.9600 
  44   2.0000      -0.541653       -14.7391 
  45   2.0000      -0.522804       -14.2262 
  46   2.0000      -0.519655       -14.1405 
  47   2.0000      -0.512021       -13.9328 
  48   2.0000      -0.505763       -13.7625 
  49   2.0000      -0.496675       -13.5152 
  50   2.0000      -0.485164       -13.2020 
  51   2.0000      -0.476072       -12.9546 
  52   2.0000      -0.470979       -12.8160 
  53   2.0000      -0.467183       -12.7127 
  54   2.0000      -0.453430       -12.3385 
  55   2.0000      -0.451361       -12.2822 
  56   2.0000      -0.442957       -12.0535 
  57   2.0000      -0.433368       -11.7925 
  58   2.0000      -0.428791       -11.6680 
  59   2.0000      -0.423761       -11.5311 
  60   2.0000      -0.419420       -11.4130 
  61   2.0000      -0.415006       -11.2929 
  62   2.0000      -0.411019       -11.1844 
  63   2.0000      -0.338312        -9.2059 
  64   2.0000      -0.334460        -9.1011 
  65   2.0000      -0.326319        -8.8796 
  66   2.0000      -0.297314        -8.0903 
  67   0.0000       0.035783         0.9737 
  68   0.0000       0.062453         1.6994 
  69   0.0000       0.109846         2.9891 
  70   0.0000       0.114326         3.1110 
  71   0.0000       0.128594         3.4992 
  72   0.0000       0.139782         3.8037 
  73   0.0000       0.145401         3.9566 
  74   0.0000       0.149831         4.0771 
  75   0.0000       0.165794         4.5115 
  76   0.0000       0.169930         4.6240 
  77   0.0000       0.182234         4.9588 
  78   0.0000       0.184595         5.0231 
  79   0.0000       0.191412         5.2086 
  80   0.0000       0.196318         5.3421 
  81   0.0000       0.204672         5.5694 
  82   0.0000       0.211004         5.7417 
  83   0.0000       0.220347         5.9959 
  84   0.0000       0.223592         6.0842 
  85   0.0000       0.226406         6.1608 
  86   0.0000       0.236270         6.4292 
  87   0.0000       0.246764         6.7148 
  88   0.0000       0.249659         6.7936 
  89   0.0000       0.253134         6.8881 
  90   0.0000       0.256000         6.9661 
  91   0.0000       0.263672         7.1749 
  92   0.0000       0.274418         7.4673 
  93   0.0000       0.286581         7.7983 
  94   0.0000       0.293847         7.9960 
  95   0.0000       0.314619         8.5612 
  96   0.0000       0.323262         8.7964 
  97   0.0000       0.330449         8.9920 
  98   0.0000       0.347186         9.4474 
  99   0.0000       0.361423         9.8348 
 100   0.0000       0.371093        10.0979 
 101   0.0000       0.393932        10.7194 
 102   0.0000       0.415292        11.3007 
 103   0.0000       0.428303        11.6547 
 104   0.0000       0.447629        12.1806 
 105   0.0000       0.457703        12.4547 
 106   0.0000       0.465948        12.6791 
 107   0.0000       0.475933        12.9508 
 108   0.0000       0.484429        13.1820 
 109   0.0000       0.493017        13.4157 
 110   0.0000       0.500135        13.6094 
 111   0.0000       0.503628        13.7044 
 112   0.0000       0.517625        14.0853 
 113   0.0000       0.527519        14.3545 
 114   0.0000       0.530991        14.4490 
 115   0.0000       0.538096        14.6423 
 116   0.0000       0.542081        14.7508 
 117   0.0000       0.546330        14.8664 
 118   0.0000       0.554772        15.0961 
 119   0.0000       0.562787        15.3142 
 120   0.0000       0.587045        15.9743 
 121   0.0000       0.594988        16.1905 
 122   0.0000       0.606983        16.5168 
 123   0.0000       0.610355        16.6086 
 124   0.0000       0.618480        16.8297 
 125   0.0000       0.628331        17.0977 
 126   0.0000       0.635618        17.2961 
 127   0.0000       0.646492        17.5919 
 128   0.0000       0.653838        17.7918 
 129   0.0000       0.657503        17.8916 
 130   0.0000       0.673381        18.3236 
 131   0.0000       0.678573        18.4649 
 132   0.0000       0.689365        18.7586 
 133   0.0000       0.699369        19.0308 
 134   0.0000       0.701653        19.0929 
 135   0.0000       0.707831        19.2610 
 136   0.0000       0.715510        19.4700 
 137   0.0000       0.718467        19.5505 
 138   0.0000       0.726579        19.7712 
 139   0.0000       0.734962        19.9993 
 140   0.0000       0.741974        20.1902 
 141   0.0000       0.746892        20.3240 
 142   0.0000       0.753549        20.5051 
 143   0.0000       0.754045        20.5186 
 144   0.0000       0.759288        20.6613 
 145   0.0000       0.763241        20.7689 
 146   0.0000       0.768014        20.8987 
 147   0.0000       0.773213        21.0402 
 148   0.0000       0.775244        21.0955 
 149   0.0000       0.780522        21.2391 
 150   0.0000       0.784135        21.3374 
 151   0.0000       0.793526        21.5929 
 152   0.0000       0.796369        21.6703 
 153   0.0000       0.799019        21.7424 
 154   0.0000       0.804915        21.9029 
 155   0.0000       0.806943        21.9580 
 156   0.0000       0.810975        22.0677 
 157   0.0000       0.817329        22.2407 
 158   0.0000       0.820784        22.3347 
 159   0.0000       0.826781        22.4979 
 160   0.0000       0.830623        22.6024 
 161   0.0000       0.834292        22.7023 
 162   0.0000       0.841232        22.8911 
 163   0.0000       0.848472        23.0881 
 164   0.0000       0.860840        23.4246 
 165   0.0000       0.868213        23.6253 
 166   0.0000       0.871404        23.7121 
 167   0.0000       0.874575        23.7984 
 168   0.0000       0.885868        24.1057 
 169   0.0000       0.890774        24.2392 
 170   0.0000       0.904146        24.6031 
 171   0.0000       0.918134        24.9837 
 172   0.0000       0.931388        25.3444 
 173   0.0000       0.949903        25.8482 
 174   0.0000       0.951528        25.8924 
 175   0.0000       0.963071        26.2065 
 176   0.0000       0.990911        26.9640 
 177   0.0000       0.999695        27.2031 
 178   0.0000       1.006507        27.3884 
 179   0.0000       1.023461        27.8498 
 180   0.0000       1.041779        28.3482 
 181   0.0000       1.051897        28.6236 
 182   0.0000       1.069680        29.1075 
 183   0.0000       1.081847        29.4386 
 184   0.0000       1.111721        30.2515 
 185   0.0000       1.128783        30.7158 
 186   0.0000       1.132690        30.8221 
 187   0.0000       1.150433        31.3049 
 188   0.0000       1.171794        31.8861 
 189   0.0000       1.187635        32.3172 
 190   0.0000       1.195135        32.5213 
 191   0.0000       1.227946        33.4141 
 192   0.0000       1.234239        33.5853 
 193   0.0000       1.242046        33.7978 
 194   0.0000       1.281856        34.8811 
 195   0.0000       1.297311        35.3016 
 196   0.0000       1.309014        35.6201 
 197   0.0000       1.328011        36.1370 
 198   0.0000       1.356808        36.9206 
 199   0.0000       1.373996        37.3883 
 200   0.0000       1.377192        37.4753 
 201   0.0000       1.417744        38.5788 
 202   0.0000       1.439364        39.1671 
 203   0.0000       1.448500        39.4157 
 204   0.0000       1.465761        39.8854 
 205   0.0000       1.475464        40.1494 
 206   0.0000       1.486836        40.4589 
 207   0.0000       1.499300        40.7980 
 208   0.0000       1.534278        41.7498 
 209   0.0000       1.558028        42.3961 
 210   0.0000       1.571226        42.7552 
 211   0.0000       1.576691        42.9040 
 212   0.0000       1.610285        43.8181 
 213   0.0000       1.620995        44.1095 
 214   0.0000       1.624471        44.2041 
 215   0.0000       1.669438        45.4277 
 216   0.0000       1.694965        46.1223 
 217   0.0000       1.695374        46.1335 
 218   0.0000       1.741634        47.3923 
 219   0.0000       1.758304        47.8459 
 220   0.0000       1.771792        48.2129 
 221   0.0000       1.790650        48.7261 
 222   0.0000       1.796799        48.8934 
 223   0.0000       1.809223        49.2315 
 224   0.0000       1.812149        49.3111 
 225   0.0000       1.832111        49.8543 
 226   0.0000       1.839483        50.0549 
 227   0.0000       1.850276        50.3486 
 228   0.0000       1.851289        50.3761 
 229   0.0000       1.858088        50.5611 
 230   0.0000       1.863417        50.7062 
 231   0.0000       1.871246        50.9192 
 232   0.0000       1.877583        51.0916 
 233   0.0000       1.883080        51.2412 
 234   0.0000       1.895359        51.5753 
 235   0.0000       1.906499        51.8785 
 236   0.0000       1.922097        52.3029 
 237   0.0000       1.928005        52.4637 
 238   0.0000       1.933262        52.6067 
 239   0.0000       1.950670        53.0804 
 240   0.0000       1.951572        53.1050 
 241   0.0000       1.960260        53.3414 
 242   0.0000       1.965365        53.4803 
 243   0.0000       1.977435        53.8087 
 244   0.0000       1.981337        53.9149 
 245   0.0000       1.986811        54.0639 
 246   0.0000       2.001580        54.4658 
 247   0.0000       2.008874        54.6642 
 248   0.0000       2.030311        55.2476 
 249   0.0000       2.036421        55.4138 
 250   0.0000       2.047270        55.7091 
 251   0.0000       2.057041        55.9749 
 252   0.0000       2.070907        56.3522 
 253   0.0000       2.077924        56.5432 
 254   0.0000       2.087529        56.8045 
 255   0.0000       2.097962        57.0884 
 256   0.0000       2.110428        57.4277 
 257   0.0000       2.114034        57.5258 
 258   0.0000       2.132913        58.0395 
 259   0.0000       2.148642        58.4675 
 260   0.0000       2.161486        58.8170 
 261   0.0000       2.184864        59.4532 
 262   0.0000       2.197809        59.8054 
 263   0.0000       2.223215        60.4968 
 264   0.0000       2.232336        60.7449 
 265   0.0000       2.237327        60.8808 
 266   0.0000       2.263959        61.6055 
 267   0.0000       2.271133        61.8007 
 268   0.0000       2.291427        62.3529 
 269   0.0000       2.313689        62.9587 
 270   0.0000       2.326537        63.3083 
 271   0.0000       2.338583        63.6361 
 272   0.0000       2.359802        64.2135 
 273   0.0000       2.374123        64.6032 
 274   0.0000       2.399286        65.2879 
 275   0.0000       2.427047        66.0433 
 276   0.0000       2.438898        66.3658 
 277   0.0000       2.442836        66.4729 
 278   0.0000       2.455816        66.8262 
 279   0.0000       2.469866        67.2085 
 280   0.0000       2.477194        67.4079 
 281   0.0000       2.499698        68.0202 
 282   0.0000       2.508115        68.2493 
 283   0.0000       2.539027        69.0904 
 284   0.0000       2.547544        69.3222 
 285   0.0000       2.555054        69.5266 
 286   0.0000       2.567918        69.8766 
 287   0.0000       2.584903        70.3388 
 288   0.0000       2.605406        70.8967 
 289   0.0000       2.626186        71.4622 
 290   0.0000       2.641910        71.8900 
 291   0.0000       2.667581        72.5886 
 292   0.0000       2.684479        73.0484 
 293   0.0000       2.689593        73.1876 
 294   0.0000       2.713673        73.8428 
 295   0.0000       2.726657        74.1961 
 296   0.0000       2.754419        74.9515 
 297   0.0000       2.775869        75.5352 
 298   0.0000       2.802138        76.2500 
 299   0.0000       2.825634        76.8894 
 300   0.0000       2.848208        77.5037 
 301   0.0000       2.867061        78.0167 
 302   0.0000       2.877404        78.2982 
 303   0.0000       2.920864        79.4808 
 304   0.0000       2.937446        79.9320 
 305   0.0000       2.972863        80.8957 
 306   0.0000       2.983383        81.1820 
 307   0.0000       2.994273        81.4783 
 308   0.0000       3.018738        82.1440 
 309   0.0000       3.039317        82.7040 
 310   0.0000       3.078513        83.7706 
 311   0.0000       3.081893        83.8626 
 312   0.0000       3.121948        84.9525 
 313   0.0000       3.134037        85.2815 
 314   0.0000       3.142658        85.5161 
 315   0.0000       3.163151        86.0737 
 316   0.0000       3.186534        86.7100 
 317   0.0000       3.201961        87.1298 
 318   0.0000       3.217054        87.5405 
 319   0.0000       3.269218        88.9599 
 320   0.0000       3.385990        92.1375 
 321   0.0000       3.443083        93.6910 

                    ********************************
                    * MULLIKEN POPULATION ANALYSIS *
                    ********************************

-----------------------
MULLIKEN ATOMIC CHARGES
-----------------------
   0 S :    0.107922
   1 C :   -0.108244
   2 C :   -0.061047
   3 C :    0.030824
   4 C :   -0.149370
   5 H :    0.003883
   6 C :    0.022562
   7 H :    0.048661
   8 H :    0.027439
   9 C :   -0.109406
  10 H :    0.043126
  11 H :    0.044484
  12 C :   -0.041370
  13 H :    0.054130
  14 H :    0.027552
  15 H :    0.039440
  16 S :    0.102527
  17 C :   -0.111991
  18 C :   -0.035997
  19 C :    0.009491
  20 C :   -0.200380
  21 H :    0.021073
  22 C :    0.069040
  23 H :    0.017147
  24 H :    0.020776
  25 C :   -0.066837
  26 H :    0.029059
  27 H :    0.036668
  28 C :   -0.015283
  29 H :    0.012465
  30 H :    0.019481
  31 H :    0.016068
  32 H :    0.019790
  33 H :    0.076316
Sum of atomic charges:   -0.0000000

--------------------------------
MULLIKEN REDUCED ORBITAL CHARGES
--------------------------------
  0 S s       :     5.851489  s :     5.851489
      pz      :     3.281155  p :     9.937938
      px      :     3.535264
      py      :     3.121518
      dz2     :     0.021489  d :     0.102651
      dxz     :     0.014156
      dyz     :     0.031442
      dx2y2   :     0.016889
      dxy     :     0.018676
  1 C s       :     3.180339  s :     3.180339
      pz      :     0.856368  p :     2.894997
      px      :     1.082251
      py      :     0.956378
      dz2     :     0.009005  d :     0.032907
      dxz     :     0.006377
      dyz     :     0.009746
      dx2y2   :     0.003198
      dxy     :     0.004581
  2 C s       :     3.071916  s :     3.071916
      pz      :     0.972614  p :     2.946088
      px      :     0.998890
      py      :     0.974584
      dz2     :     0.009799  d :     0.043043
      dxz     :     0.008638
      dyz     :     0.012288
      dx2y2   :     0.005998
      dxy     :     0.006321
  3 C s       :     3.182012  s :     3.182012
      pz      :     0.890992  p :     2.753712
      px      :     0.993265
      py      :     0.869455
      dz2     :     0.009268  d :     0.033452
      dxz     :     0.006444
      dyz     :     0.009187
      dx2y2   :     0.004516
      dxy     :     0.004038
  4 C s       :     3.069338  s :     3.069338
      pz      :     0.992994  p :     3.033893
      px      :     1.055276
      py      :     0.985623
      dz2     :     0.010515  d :     0.046139
      dxz     :     0.008957
      dyz     :     0.014304
      dx2y2   :     0.006646
      dxy     :     0.005717
  5 H s       :     0.970420  s :     0.970420
      pz      :     0.007231  p :     0.025697
      px      :     0.006396
      py      :     0.012069
  6 C s       :     3.002038  s :     3.002038
      pz      :     0.905867  p :     2.941298
      px      :     1.013620
      py      :     1.021811
      dz2     :     0.010714  d :     0.034102
      dxz     :     0.004100
      dyz     :     0.006707
      dx2y2   :     0.001962
      dxy     :     0.010619
  7 H s       :     0.927054  s :     0.927054
      pz      :     0.004886  p :     0.024285
      px      :     0.011237
      py      :     0.008162
  8 H s       :     0.950810  s :     0.950810
      pz      :     0.004108  p :     0.021751
      px      :     0.010685
      py      :     0.006958
  9 C s       :     3.098637  s :     3.098637
      pz      :     0.932582  p :     2.975890
      px      :     1.030608
      py      :     1.012700
      dz2     :     0.008028  d :     0.034879
      dxz     :     0.006276
      dyz     :     0.009598
      dx2y2   :     0.002863
      dxy     :     0.008114
 10 H s       :     0.934745  s :     0.934745
      pz      :     0.006128  p :     0.022130
      px      :     0.008322
      py      :     0.007679
 11 H s       :     0.933837  s :     0.933837
      pz      :     0.003800  p :     0.021679
      px      :     0.011533
      py      :     0.006346
 12 C s       :     3.034263  s :     3.034263
      pz      :     0.975613  p :     2.980380
      px      :     0.978941
      py      :     1.025825
      dz2     :     0.005886  d :     0.026727
      dxz     :     0.005608
      dyz     :     0.005407
      dx2y2   :     0.001562
      dxy     :     0.008264
 13 H s       :     0.924735  s :     0.924735
      pz      :     0.005132  p :     0.021135
      px      :     0.011035
      py      :     0.004968
 14 H s       :     0.948817  s :     0.948817
      pz      :     0.004225  p :     0.023631
      px      :     0.008856
      py      :     0.010550
 15 H s       :     0.935625  s :     0.935625
      pz      :     0.007429  p :     0.024935
      px      :     0.007658
      py      :     0.009848
 16 S s       :     5.851027  s :     5.851027
      pz      :     3.484586  p :     9.946872
      px      :     3.245787
      py      :     3.216498
      dz2     :     0.017322  d :     0.099574
      dxz     :     0.014384
      dyz     :     0.019298
      dx2y2   :     0.027622
      dxy     :     0.020948
 17 C s       :     3.166144  s :     3.166144
      pz      :     0.994827  p :     2.911181
      px      :     0.963530
      py      :     0.952824
      dz2     :     0.004541  d :     0.034666
      dxz     :     0.008196
      dyz     :     0.004989
      dx2y2   :     0.007288
      dxy     :     0.009653
 18 C s       :     3.186486  s :     3.186486
      pz      :     0.973929  p :     2.813048
      px      :     0.881279
      py      :     0.957839
      dz2     :     0.004303  d :     0.036463
      dxz     :     0.008217
      dyz     :     0.005175
      dx2y2   :     0.009149
      dxy     :     0.009618
 19 C s       :     3.027610  s :     3.027610
      pz      :     0.988842  p :     2.918360
      px      :     0.966467
      py      :     0.963051
      dz2     :     0.007268  d :     0.044539
      dxz     :     0.010397
      dyz     :     0.005372
      dx2y2   :     0.009938
      dxy     :     0.011564
 20 C s       :     3.092131  s :     3.092131
      pz      :     1.096259  p :     3.064430
      px      :     0.907217
      py      :     1.060954
      dz2     :     0.006301  d :     0.043819
      dxz     :     0.007767
      dyz     :     0.006585
      dx2y2   :     0.011985
      dxy     :     0.011181
 21 H s       :     0.955555  s :     0.955555
      pz      :     0.008299  p :     0.023372
      px      :     0.006185
      py      :     0.008887
 22 C s       :     2.944121  s :     2.944121
      pz      :     1.029224  p :     2.952670
      px      :     0.930465
      py      :     0.992981
      dz2     :     0.006698  d :     0.034169
      dxz     :     0.004511
      dyz     :     0.006696
      dx2y2   :     0.009006
      dxy     :     0.007259
 23 H s       :     0.957914  s :     0.957914
      pz      :     0.009257  p :     0.024940
      px      :     0.004028
      py      :     0.011655
 24 H s       :     0.954523  s :     0.954523
      pz      :     0.013160  p :     0.024701
      px      :     0.004947
      py      :     0.006594
 25 C s       :     3.057747  s :     3.057747
      pz      :     1.013207  p :     2.971710
      px      :     0.985630
      py      :     0.972873
      dz2     :     0.008990  d :     0.037380
      dxz     :     0.003773
      dyz     :     0.010864
      dx2y2   :     0.005421
      dxy     :     0.008333
 26 H s       :     0.948418  s :     0.948418
      pz      :     0.004857  p :     0.022523
      px      :     0.011558
      py      :     0.006107
 27 H s       :     0.941959  s :     0.941959
      pz      :     0.008321  p :     0.021373
      px      :     0.003702
      py      :     0.009350
 28 C s       :     2.954498  s :     2.954498
      pz      :     0.974840  p :     3.028915
      px      :     1.026163
      py      :     1.027912
      dz2     :     0.008123  d :     0.031870
      dxz     :     0.004529
      dyz     :     0.008319
      dx2y2   :     0.001784
      dxy     :     0.009115
 29 H s       :     0.961902  s :     0.961902
      pz      :     0.005050  p :     0.025633
      px      :     0.010854
      py      :     0.009729
 30 H s       :     0.954119  s :     0.954119
      pz      :     0.005354  p :     0.026400
      px      :     0.012992
      py      :     0.008054
 31 H s       :     0.959634  s :     0.959634
      pz      :     0.009360  p :     0.024298
      px      :     0.006084
      py      :     0.008855
 32 H s       :     0.954097  s :     0.954097
      pz      :     0.003828  p :     0.026113
      px      :     0.008640
      py      :     0.013646
 33 H s       :     0.901465  s :     0.901465
      pz      :     0.006694  p :     0.022219
      px      :     0.007516
      py      :     0.008009


                     *******************************
                     * LOEWDIN POPULATION ANALYSIS *
                     *******************************

----------------------
LOEWDIN ATOMIC CHARGES
----------------------
   0 S :    0.401214
   1 C :   -0.180504
   2 C :   -0.052124
   3 C :   -0.059849
   4 C :   -0.198337
   5 H :    0.021994
   6 C :   -0.033991
   7 H :    0.035134
   8 H :    0.028161
   9 C :   -0.049685
  10 H :    0.026782
  11 H :    0.028577
  12 C :   -0.070794
  13 H :    0.042583
  14 H :    0.027140
  15 H :    0.027330
  16 S :    0.384855
  17 C :   -0.183675
  18 C :   -0.075764
  19 C :   -0.058113
  20 C :   -0.191277
  21 H :    0.036188
  22 C :   -0.039518
  23 H :    0.025413
  24 H :    0.034712
  25 C :   -0.038388
  26 H :    0.033996
  27 H :    0.026809
  28 C :   -0.066220
  29 H :    0.022220
  30 H :    0.014671
  31 H :    0.025359
  32 H :    0.015025
  33 H :    0.040078

-------------------------------
LOEWDIN REDUCED ORBITAL CHARGES
-------------------------------
  0 S s       :     5.520529  s :     5.520529
      pz      :     3.309527  p :     9.951944
      px      :     3.512093
      py      :     3.130324
      dz2     :     0.024579  d :     0.126312
      dxz     :     0.016016
      dyz     :     0.040158
      dx2y2   :     0.021249
      dxy     :     0.024309
  1 C s       :     2.920394  s :     2.920394
      pz      :     0.997799  p :     3.181023
      px      :     1.105846
      py      :     1.077378
      dz2     :     0.023277  d :     0.079087
      dxz     :     0.013976
      dyz     :     0.025429
      dx2y2   :     0.006552
      dxy     :     0.009852
  2 C s       :     2.874497  s :     2.874497
      pz      :     1.047134  p :     3.073944
      px      :     0.984959
      py      :     1.041851
      dz2     :     0.026283  d :     0.103683
      dxz     :     0.016847
      dyz     :     0.032698
      dx2y2   :     0.013721
      dxy     :     0.014135
  3 C s       :     2.864522  s :     2.864522
      pz      :     1.052029  p :     3.106861
      px      :     1.019269
      py      :     1.035564
      dz2     :     0.028336  d :     0.088465
      dxz     :     0.014361
      dyz     :     0.026463
      dx2y2   :     0.010078
      dxy     :     0.009227
  4 C s       :     2.905668  s :     2.905668
      pz      :     1.091842  p :     3.182568
      px      :     1.059624
      py      :     1.031102
      dz2     :     0.028459  d :     0.110102
      dxz     :     0.018839
      dyz     :     0.035475
      dx2y2   :     0.014536
      dxy     :     0.012794
  5 H s       :     0.899780  s :     0.899780
      pz      :     0.022031  p :     0.078226
      px      :     0.020120
      py      :     0.036076
  6 C s       :     2.843320  s :     2.843320
      pz      :     0.990822  p :     3.107650
      px      :     1.070168
      py      :     1.046660
      dz2     :     0.026911  d :     0.083021
      dxz     :     0.008357
      dyz     :     0.017734
      dx2y2   :     0.004986
      dxy     :     0.025033
  7 H s       :     0.892320  s :     0.892320
      pz      :     0.015583  p :     0.072546
      px      :     0.031479
      py      :     0.025485
  8 H s       :     0.907197  s :     0.907197
      pz      :     0.013221  p :     0.064643
      px      :     0.029047
      py      :     0.022375
  9 C s       :     2.850300  s :     2.850300
      pz      :     1.005695  p :     3.115756
      px      :     1.063987
      py      :     1.046075
      dz2     :     0.019300  d :     0.083629
      dxz     :     0.013891
      dyz     :     0.024124
      dx2y2   :     0.006825
      dxy     :     0.019488
 10 H s       :     0.909317  s :     0.909317
      pz      :     0.018447  p :     0.063901
      px      :     0.023170
      py      :     0.022283
 11 H s       :     0.906377  s :     0.906377
      pz      :     0.011985  p :     0.065047
      px      :     0.033277
      py      :     0.019784
 12 C s       :     2.846571  s :     2.846571
      pz      :     1.036911  p :     3.155455
      px      :     1.037726
      py      :     1.080819
      dz2     :     0.015548  d :     0.068767
      dxz     :     0.014157
      dyz     :     0.013755
      dx2y2   :     0.004036
      dxy     :     0.021271
 13 H s       :     0.901024  s :     0.901024
      pz      :     0.013702  p :     0.056393
      px      :     0.029733
      py      :     0.012958
 14 H s       :     0.908219  s :     0.908219
      pz      :     0.012639  p :     0.064641
      px      :     0.024392
      py      :     0.027609
 15 H s       :     0.901301  s :     0.901301
      pz      :     0.022349  p :     0.071369
      px      :     0.021985
      py      :     0.027035
 16 S s       :     5.533117  s :     5.533117
      pz      :     3.465138  p :     9.960476
      px      :     3.281518
      py      :     3.213820
      dz2     :     0.020431  d :     0.121552
      dxz     :     0.016075
      dyz     :     0.024891
      dx2y2   :     0.034304
      dxy     :     0.025852
 17 C s       :     2.943501  s :     2.943501
      pz      :     1.044459  p :     3.159907
      px      :     1.081512
      py      :     1.033937
      dz2     :     0.010050  d :     0.080267
      dxz     :     0.018581
      dyz     :     0.009824
      dx2y2   :     0.019140
      dxy     :     0.022673
 18 C s       :     2.858558  s :     2.858558
      pz      :     1.022739  p :     3.120581
      px      :     1.063183
      py      :     1.034659
      dz2     :     0.009711  d :     0.096625
      dxz     :     0.020766
      dyz     :     0.012776
      dx2y2   :     0.026953
      dxy     :     0.026418
 19 C s       :     2.853378  s :     2.853378
      pz      :     1.012778  p :     3.092562
      px      :     1.040691
      py      :     1.039093
      dz2     :     0.016040  d :     0.112174
      dxz     :     0.023978
      dyz     :     0.014604
      dx2y2   :     0.027048
      dxy     :     0.030504
 20 C s       :     2.907030  s :     2.907030
      pz      :     1.088457  p :     3.178888
      px      :     1.013391
      py      :     1.077040
      dz2     :     0.013381  d :     0.105359
      dxz     :     0.018183
      dyz     :     0.016294
      dx2y2   :     0.030116
      dxy     :     0.027386
 21 H s       :     0.896966  s :     0.896966
      pz      :     0.023531  p :     0.066846
      px      :     0.018132
      py      :     0.025183
 22 C s       :     2.830245  s :     2.830245
      pz      :     1.088582  p :     3.125580
      px      :     0.992795
      py      :     1.044202
      dz2     :     0.016752  d :     0.083693
      dxz     :     0.009540
      dyz     :     0.016446
      dx2y2   :     0.022023
      dxy     :     0.018933
 23 H s       :     0.900419  s :     0.900419
      pz      :     0.024352  p :     0.074168
      px      :     0.014833
      py      :     0.034983
 24 H s       :     0.894086  s :     0.894086
      pz      :     0.035823  p :     0.071202
      px      :     0.015935
      py      :     0.019444
 25 C s       :     2.837271  s :     2.837271
      pz      :     1.049393  p :     3.111145
      px      :     1.032830
      py      :     1.028922
      dz2     :     0.022639  d :     0.089973
      dxz     :     0.007032
      dyz     :     0.026672
      dx2y2   :     0.011954
      dxy     :     0.021676
 26 H s       :     0.900074  s :     0.900074
      pz      :     0.014029  p :     0.065930
      px      :     0.034124
      py      :     0.017777
 27 H s       :     0.911623  s :     0.911623
      pz      :     0.023585  p :     0.061568
      px      :     0.010899
      py      :     0.027083
 28 C s       :     2.804578  s :     2.804578
      pz      :     1.031059  p :     3.180098
      px      :     1.075563
      py      :     1.073476
      dz2     :     0.021643  d :     0.081545
      dxz     :     0.010017
      dyz     :     0.021830
      dx2y2   :     0.005033
      dxy     :     0.023023
 29 H s       :     0.907039  s :     0.907039
      pz      :     0.015564  p :     0.070741
      px      :     0.028629
      py      :     0.026548
 30 H s       :     0.909284  s :     0.909284
      pz      :     0.017956  p :     0.076045
      px      :     0.034922
      py      :     0.023166
 31 H s       :     0.907569  s :     0.907569
      pz      :     0.027686  p :     0.067072
      px      :     0.015523
      py      :     0.023863
 32 H s       :     0.901640  s :     0.901640
      pz      :     0.015030  p :     0.083335
      px      :     0.027364
      py      :     0.040941
 33 H s       :     0.892041  s :     0.892041
      pz      :     0.021160  p :     0.067881
      px      :     0.021304
      py      :     0.025417


                      *****************************
                      * MAYER POPULATION ANALYSIS *
                      *****************************

  NA   - Mulliken gross atomic population
  ZA   - Total nuclear charge
  QA   - Mulliken gross atomic charge
  VA   - Mayer's total valence
  BVA  - Mayer's bonded valence
  FA   - Mayer's free valence

  ATOM       NA         ZA         QA         VA         BVA        FA
  0 S     15.8921    16.0000     0.1079     2.4547     2.4547    -0.0000
  1 C      6.1082     6.0000    -0.1082     3.8601     3.8601     0.0000
  2 C      6.0610     6.0000    -0.0610     3.9619     3.9619     0.0000
  3 C      5.9692     6.0000     0.0308     3.9492     3.9492     0.0000
  4 C      6.1494     6.0000    -0.1494     3.9041     3.9041     0.0000
  5 H      0.9961     1.0000     0.0039     1.0133     1.0133    -0.0000
  6 C      5.9774     6.0000     0.0226     3.9336     3.9336     0.0000
  7 H      0.9513     1.0000     0.0487     0.9869     0.9869     0.0000
  8 H      0.9726     1.0000     0.0274     0.9856     0.9856    -0.0000
  9 C      6.1094     6.0000    -0.1094     4.0657     4.0657     0.0000
 10 H      0.9569     1.0000     0.0431     0.9794     0.9794     0.0000
 11 H      0.9555     1.0000     0.0445     0.9724     0.9724     0.0000
 12 C      6.0414     6.0000    -0.0414     3.9838     3.9838     0.0000
 13 H      0.9459     1.0000     0.0541     0.9830     0.9830     0.0000
 14 H      0.9724     1.0000     0.0276     0.9910     0.9910     0.0000
 15 H      0.9606     1.0000     0.0394     0.9883     0.9883     0.0000
 16 S     15.8975    16.0000     0.1025     2.4657     2.4657    -0.0000
 17 C      6.1120     6.0000    -0.1120     3.8187     3.8187    -0.0000
 18 C      6.0360     6.0000    -0.0360     3.9510     3.9510    -0.0000
 19 C      5.9905     6.0000     0.0095     4.0241     4.0241    -0.0000
 20 C      6.2004     6.0000    -0.2004     3.8992     3.8992    -0.0000
 21 H      0.9789     1.0000     0.0211     0.9951     0.9951     0.0000
 22 C      5.9310     6.0000     0.0690     3.9472     3.9472     0.0000
 23 H      0.9829     1.0000     0.0171     1.0020     1.0020     0.0000
 24 H      0.9792     1.0000     0.0208     0.9813     0.9813     0.0000
 25 C      6.0668     6.0000    -0.0668     4.1223     4.1223    -0.0000
 26 H      0.9709     1.0000     0.0291     0.9729     0.9729    -0.0000
 27 H      0.9633     1.0000     0.0367     0.9774     0.9774    -0.0000
 28 C      6.0153     6.0000    -0.0153     3.9811     3.9811    -0.0000
 29 H      0.9875     1.0000     0.0125     0.9871     0.9871    -0.0000
 30 H      0.9805     1.0000     0.0195     0.9961     0.9961    -0.0000
 31 H      0.9839     1.0000     0.0161     0.9916     0.9916    -0.0000
 32 H      0.9802     1.0000     0.0198     1.0137     1.0137     0.0000
 33 H      0.9237     1.0000     0.0763     0.9910     0.9910    -0.0000

  Mayer bond orders larger than 0.100000
B(  0-S ,  1-C ) :   1.1138 B(  0-S ,  4-C ) :   1.1412 B(  1-C ,  2-C ) :   1.6553 
B(  1-C , 32-H ) :   0.9764 B(  2-C ,  3-C ) :   1.2030 B(  2-C ,  6-C ) :   0.9979 
B(  3-C ,  4-C ) :   1.6099 B(  3-C ,  5-H ) :   0.9897 B(  4-C , 20-C ) :   1.0086 
B(  6-C ,  7-H ) :   0.9466 B(  6-C ,  8-H ) :   0.9419 B(  6-C ,  9-C ) :   1.0542 
B(  9-C , 10-H ) :   0.9485 B(  9-C , 11-H ) :   0.9639 B(  9-C , 12-C ) :   1.0734 
B( 12-C , 13-H ) :   0.9750 B( 12-C , 14-H ) :   0.9748 B( 12-C , 15-H ) :   0.9737 
B( 16-S , 17-C ) :   1.1515 B( 16-S , 20-C ) :   1.1371 B( 17-C , 18-C ) :   1.5982 
B( 17-C , 20-C ) :   0.1023 B( 17-C , 33-H ) :   0.9605 B( 18-C , 19-C ) :   1.2617 
B( 18-C , 21-H ) :   0.9876 B( 19-C , 20-C ) :   1.5993 B( 19-C , 22-C ) :   1.0223 
B( 22-C , 23-H ) :   0.9306 B( 22-C , 24-H ) :   0.9226 B( 22-C , 25-C ) :   1.0837 
B( 25-C , 26-H ) :   0.9471 B( 25-C , 27-H ) :   0.9545 B( 25-C , 28-C ) :   1.0907 
B( 28-C , 29-H ) :   0.9691 B( 28-C , 30-H ) :   0.9755 B( 28-C , 31-H ) :   0.9687 


-------
TIMINGS
-------

Total SCF time: 0 days 0 hours 0 min 18 sec 

Total time                  ....      18.276 sec
Sum of individual times     ....      17.438 sec  ( 95.4%)

Fock matrix formation       ....      15.803 sec  ( 86.5%)
  XC integration            ....       1.387 sec  (  8.8% of F)
    Basis function eval.    ....       0.131 sec  (  9.5% of XC)
    Density eval.           ....       0.090 sec  (  6.5% of XC)
    XC-Functional eval.     ....       0.102 sec  (  7.4% of XC)
    XC-Potential eval.      ....       0.108 sec  (  7.8% of XC)
Diagonalization             ....       0.140 sec  (  0.8%)
Density matrix formation    ....       0.024 sec  (  0.1%)
Population analysis         ....       0.062 sec  (  0.3%)
Initial guess               ....       0.168 sec  (  0.9%)
Orbital Transformation      ....       0.000 sec  (  0.0%)
Orbital Orthonormalization  ....       0.000 sec  (  0.0%)
DIIS solution               ....       0.167 sec  (  0.9%)
SOSCF solution              ....       0.106 sec  (  0.6%)
Grid generation             ....       0.968 sec  (  5.3%)


-------------------------------------------------------------------------------
                          DFT DISPERSION CORRECTION                            
                                                                               
                              DFTD3 V3.1  Rev 1                                
                              USING zero damping                               
-------------------------------------------------------------------------------
The omegaB97X-D3 functional is recognized. Fit by Chai et al.
Active option DFTDOPT                   ...         3   

molecular C6(AA) [au] = 14207.460388 


            DFT-D V3
 parameters
 s6 scaling factor         :     1.0000 
 rs6 scaling factor        :     1.2810 
 s8 scaling factor         :     1.0000 
 rs8 scaling factor        :     1.0940 
 Damping factor alpha6     :    14.0000 
 Damping factor alpha8     :    16.0000 
 ad hoc parameters k1-k3   :    16.0000     1.3333    -4.0000 

 Edisp/kcal,au: -8.869220150963  -0.014134000476 
 E6   /kcal   :  -3.984052229 
 E8   /kcal   :  -4.885167922 
 % E8         :  55.080016490 

-------------------------   ----------------
Dispersion correction           -0.014134000
-------------------------   ----------------


-------------------------   --------------------
FINAL SINGLE POINT ENERGY     -1339.860114188907
-------------------------   --------------------


                            ***************************************
                            *     ORCA property calculations      *
                            ***************************************

                                    ---------------------
                                    Active property flags
                                    ---------------------
   (+) Dipole Moment


------------------------------------------------------------------------------
                       ORCA ELECTRIC PROPERTIES CALCULATION
------------------------------------------------------------------------------

Dipole Moment Calculation                       ... on
Quadrupole Moment Calculation                   ... off
Polarizability Calculation                      ... off
GBWName                                         ... config_7950.gbw
Electron density file                           ... config_7950.scfp
The origin for moment calculation is the CENTER OF MASS  = (-153.529103, -84.686140 -158.597330)

-------------
DIPOLE MOMENT
-------------
                                X             Y             Z
Electronic contribution:    -13.69837       4.30860     -19.20720
Nuclear contribution   :     14.08424      -4.42602      19.57728
                        -----------------------------------------
Total Dipole Moment    :      0.38587      -0.11743       0.37008
                        -----------------------------------------
Magnitude (a.u.)       :      0.54739
Magnitude (Debye)      :      1.39136



--------------------
Rotational spectrum 
--------------------
 
Rotational constants in cm-1:     0.017837     0.007777     0.007352 
Rotational constants in MHz :   534.746859   233.153038   220.402730 

 Dipole components along the rotational axes: 
x,y,z [a.u.] :     0.201746    -0.460262     0.217019 
x,y,z [Debye]:     0.512799    -1.169893     0.551620 

 

Timings for individual modules:

Sum of individual times         ...       19.439 sec (=   0.324 min)
GTO integral calculation        ...        0.783 sec (=   0.013 min)   4.0 %
SCF iterations                  ...       18.656 sec (=   0.311 min)  96.0 %
                             ****ORCA TERMINATED NORMALLY****
TOTAL RUN TIME: 0 days 0 hours 0 minutes 20 seconds 135 msec
