
                                 *****************
                                 * O   R   C   A *
                                 *****************

           --- An Ab Initio, DFT and Semiempirical electronic structure package ---

                  #######################################################
                  #                        -***-                        #
                  #          Department of theory and spectroscopy      #
                  #               Directorship: Frank Neese             #
                  #        Max Planck Institute fuer Kohlenforschung    #
                  #                Kaiser Wilhelm Platz 1               #
                  #                 D-45470 Muelheim/Ruhr               #
                  #                      Germany                        #
                  #                                                     #
                  #                  All rights reserved                #
                  #                        -***-                        #
                  #######################################################


                         Program Version 4.2.1 -  RELEASE  -


 With contributions from (in alphabetic order):
   Daniel Aravena         : Magnetic Suceptibility
   Michael Atanasov       : Ab Initio Ligand Field Theory (pilot matlab implementation)
   Alexander A. Auer      : GIAO ZORA, VPT2
   Ute Becker             : Parallelization
   Giovanni Bistoni       : ED, misc. LED, open-shell LED, HFLD
   Martin Brehm           : Molecular dynamics
   Dmytro Bykov           : SCF Hessian
   Vijay G. Chilkuri      : MRCI spin determinant printing, contributions to CSF-ICE
   Dipayan Datta          : RHF DLPNO-CCSD density
   Achintya Kumar Dutta   : EOM-CC, STEOM-CC
   Dmitry Ganyushin       : Spin-Orbit,Spin-Spin,Magnetic field MRCI
   Miquel Garcia          : C-PCM Hessian, Gaussian charge scheme
   Yang Guo               : DLPNO-NEVPT2, CIM, IAO-localization
   Andreas Hansen         : Spin unrestricted coupled pair/coupled cluster methods
   Benjamin Helmich-Paris : CASSCF linear response (MC-RPA)
   Lee Huntington         : MR-EOM, pCC
   Robert Izsak           : Overlap fitted RIJCOSX, COSX-SCS-MP3, EOM
   Christian Kollmar      : KDIIS, OOCD, Brueckner-CCSD(T), CCSD density
   Simone Kossmann        : Meta GGA functionals, TD-DFT gradient, OOMP2, MP2 Hessian
   Martin Krupicka        : AUTO-CI
   Lucas Lang             : DCDCAS
   Dagmar Lenk            : GEPOL surface, SMD
   Dimitrios Liakos       : Extrapolation schemes; Compound Job, initial MDCI parallelization
   Dimitrios Manganas     : Further ROCIS development; embedding schemes
   Dimitrios Pantazis     : SARC Basis sets
   Taras Petrenko         : DFT Hessian,TD-DFT gradient, ASA, ECA, R-Raman, ABS, FL, XAS/XES, NRVS
   Peter Pinski           : DLPNO-MP2, DLPNO-MP2 Gradient
   Christoph Reimann      : Effective Core Potentials
   Marius Retegan         : Local ZFS, SOC
   Christoph Riplinger    : Optimizer, TS searches, QM/MM, DLPNO-CCSD(T), (RO)-DLPNO pert. Triples
   Tobias Risthaus        : Range-separated hybrids, TD-DFT gradient, RPA, STAB
   Michael Roemelt        : Original ROCIS implementation
   Masaaki Saitow         : Open-shell DLPNO-CCSD energy and density
   Barbara Sandhoefer     : DKH picture change effects
   Avijit Sen             : IP-ROCIS
   Kantharuban Sivalingam : CASSCF convergence, NEVPT2, FIC-MRCI
   Bernardo de Souza      : ESD, SOC TD-DFT
   Georgi Stoychev        : AutoAux, RI-MP2 NMR
   Willem Van den Heuvel  : Paramagnetic NMR
   Boris Wezisla          : Elementary symmetry handling
   Frank Wennmohs         : Technical directorship


 We gratefully acknowledge several colleagues who have allowed us to
 interface, adapt or use parts of their codes:
   Stefan Grimme, W. Hujo, H. Kruse,             : VdW corrections, initial TS optimization,
                  C. Bannwarth                     DFT functionals, gCP, sTDA/sTD-DF
   Ed Valeev, F. Pavosevic, A. Kumar             : LibInt (2-el integral package), F12 methods
   Garnet Chan, S. Sharma, J. Yang, R. Olivares  : DMRG
   Ulf Ekstrom                                   : XCFun DFT Library
   Mihaly Kallay                                 : mrcc  (arbitrary order and MRCC methods)
   Andreas Klamt, Michael Diedenhofen            : otool_cosmo (COSMO solvation model)
   Jiri Pittner, Ondrej Demel                    : Mk-CCSD
   Frank Weinhold                                : gennbo (NPA and NBO analysis)
   Christopher J. Cramer and Donald G. Truhlar   : smd solvation model
   Lars Goerigk                                  : TD-DFT with DH, B97 family of functionals
   V. Asgeirsson, H. Jonsson                     : NEB implementation
   FAccTs GmbH                                   : IRC, NEB, NEB-TS, Multilevel, MM, QM/MM, CI optimization
   S Lehtola, MJT Oliveira, MAL Marques          : LibXC Library


 Your calculation uses the libint2 library for the computation of 2-el integrals
 For citations please refer to: http://libint.valeyev.net

 Your ORCA version has been built with support for libXC version: 4.2.3
 For citations please refer to: https://tddft.org/programs/libxc/

 This ORCA versions uses:
   CBLAS   interface :  Fast vector & matrix operations
   LAPACKE interface :  Fast linear algebra routines
   SCALAPACK package :  Parallel linear algebra routines


Your calculation utilizes the atom-pairwise dispersion correction
with the zero-damping scheme (D30)
Cite in your paper:
S.Grimme, J.Antony, S.Ehrlich and H.Krieg, J.Chem.Phys., 132, (2010), 154104 
   

XCFun DFT library Copyright 2009-2010 Ulf Ekstrom and contributors.
See http://admol.org/xcfun for more information. This is free soft-
ware; see the source code for copying conditions. There is ABSOLUTELY
NO WARRANTY; not even for MERCHANTABILITY or FITNESS FOR A PARTICULAR
PURPOSE. For details see the documentation. Scientific users of this 
library should cite U. Ekstrom, L. Visscher, R. Bast, A. J. Thorvald-
sen and K. Ruud; J.Chem.Theor.Comp. 2010, DOI: 10.1021/ct100117s
XCFun Version 0.99 
----- Orbital basis set information -----
Your calculation utilizes the basis: def2-SVP
   F. Weigend and R. Ahlrichs, Phys. Chem. Chem. Phys. 7, 3297 (2005).

================================================================================
                                        WARNINGS
                       Please study these warnings very carefully!
================================================================================


INFO   : the flag for use of LIBINT has been found!

================================================================================
                                       INPUT FILE
================================================================================
NAME = config_6645.inp
|  1> ! wB97X-D3 SP def2-SVP
|  2> %pal
|  3> nprocs 24
|  4> end
|  5> 
|  6> * xyz 0 1
|  7> S 	 -54.8593 	 14.5673 	 -99.9006 	 
|  8> C 	 -54.3629 	 15.2777 	 -98.459 	 
|  9> C 	 -55.2033 	 14.9907 	 -97.4237 	 
| 10> C 	 -56.4189 	 14.2995 	 -97.9178 	 
| 11> C 	 -56.4119 	 13.9867 	 -99.2695 	 
| 12> H 	 -57.1478 	 13.9066 	 -97.2612 	 
| 13> C 	 -55.0323 	 15.175 	 -95.9318 	 
| 14> H 	 -55.9605 	 15.4284 	 -95.4088 	 
| 15> H 	 -54.5838 	 16.1213 	 -95.9296 	 
| 16> C 	 -54.2001 	 14.214 	 -95.0822 	 
| 17> H 	 -54.6335 	 13.204 	 -94.9933 	 
| 18> H 	 -53.1834 	 14.1292 	 -95.5122 	 
| 19> C 	 -54.2224 	 14.6279 	 -93.5865 	 
| 20> H 	 -53.5512 	 14.0793 	 -92.8981 	 
| 21> H 	 -54.1372 	 15.6702 	 -93.4292 	 
| 22> H 	 -55.2391 	 14.4528 	 -93.2697 	 
| 23> S 	 -56.5962 	 11.4996 	 -100.451 	 
| 24> C 	 -58.0933 	 11.0313 	 -101.217 	 
| 25> C 	 -59.0828 	 12.043 	 -101.175 	 
| 26> C 	 -58.6141 	 13.178 	 -100.358 	 
| 27> C 	 -57.2786 	 13.0998 	 -99.9964 	 
| 28> H 	 -59.952 	 11.8501 	 -101.682 	 
| 29> C 	 -59.5033 	 14.379 	 -100.036 	 
| 30> H 	 -59.3291 	 14.6826 	 -98.9719 	 
| 31> H 	 -60.5927 	 14.0759 	 -100.101 	 
| 32> C 	 -59.3544 	 15.6993 	 -100.798 	 
| 33> H 	 -58.2906 	 15.942 	 -100.753 	 
| 34> H 	 -59.7923 	 16.4804 	 -100.247 	 
| 35> C 	 -59.8047 	 15.5617 	 -102.227 	 
| 36> H 	 -59.2377 	 14.7828 	 -102.806 	 
| 37> H 	 -59.6701 	 16.4932 	 -102.735 	 
| 38> H 	 -60.8841 	 15.352 	 -102.351 	 
| 39> H 	 -53.4365 	 15.766 	 -98.323 	 
| 40> H 	 -58.2956 	 10.1254 	 -101.801 	 
| 41> *
| 42> 
| 43>                          ****END OF INPUT****
================================================================================

                       ****************************
                       * Single Point Calculation *
                       ****************************

---------------------------------
CARTESIAN COORDINATES (ANGSTROEM)
---------------------------------
  S    -54.859300   14.567300  -99.900600
  C    -54.362900   15.277700  -98.459000
  C    -55.203300   14.990700  -97.423700
  C    -56.418900   14.299500  -97.917800
  C    -56.411900   13.986700  -99.269500
  H    -57.147800   13.906600  -97.261200
  C    -55.032300   15.175000  -95.931800
  H    -55.960500   15.428400  -95.408800
  H    -54.583800   16.121300  -95.929600
  C    -54.200100   14.214000  -95.082200
  H    -54.633500   13.204000  -94.993300
  H    -53.183400   14.129200  -95.512200
  C    -54.222400   14.627900  -93.586500
  H    -53.551200   14.079300  -92.898100
  H    -54.137200   15.670200  -93.429200
  H    -55.239100   14.452800  -93.269700
  S    -56.596200   11.499600  -100.451000
  C    -58.093300   11.031300  -101.217000
  C    -59.082800   12.043000  -101.175000
  C    -58.614100   13.178000  -100.358000
  C    -57.278600   13.099800  -99.996400
  H    -59.952000   11.850100  -101.682000
  C    -59.503300   14.379000  -100.036000
  H    -59.329100   14.682600  -98.971900
  H    -60.592700   14.075900  -100.101000
  C    -59.354400   15.699300  -100.798000
  H    -58.290600   15.942000  -100.753000
  H    -59.792300   16.480400  -100.247000
  C    -59.804700   15.561700  -102.227000
  H    -59.237700   14.782800  -102.806000
  H    -59.670100   16.493200  -102.735000
  H    -60.884100   15.352000  -102.351000
  H    -53.436500   15.766000  -98.323000
  H    -58.295600   10.125400  -101.801000

----------------------------
CARTESIAN COORDINATES (A.U.)
----------------------------
  NO LB      ZA    FRAG     MASS         X           Y           Z
   0 S    16.0000    0    32.060  -103.669053   27.528208  -188.784775
   1 C     6.0000    0    12.011  -102.730993   28.870669  -186.060545
   2 C     6.0000    0    12.011  -104.319119   28.328318  -184.104112
   3 C     6.0000    0    12.011  -106.616270   27.022139  -185.037826
   4 C     6.0000    0    12.011  -106.603042   26.431033  -187.592168
   5 H     1.0000    0     1.008  -107.993691   26.279665  -183.797031
   6 C     6.0000    0    12.011  -103.995976   28.676594  -181.284830
   7 H     1.0000    0     1.008  -105.750019   29.155451  -180.296503
   8 H     1.0000    0     1.008  -103.148433   30.464842  -181.280672
   9 C     6.0000    0    12.011  -102.423345   26.860567  -179.679318
  10 H     1.0000    0     1.008  -103.242353   24.951944  -179.511322
  11 H     1.0000    0     1.008  -100.502061   26.700318  -180.491900
  12 C     6.0000    0    12.011  -102.465486   27.642725  -176.852855
  13 H     1.0000    0     1.008  -101.197102   26.606021  -175.551967
  14 H     1.0000    0     1.008  -102.304482   29.612386  -176.555601
  15 H     1.0000    0     1.008  -104.386771   27.311834  -176.254190
  16 S    16.0000    0    32.060  -106.951318   21.731095  -189.824880
  17 C     6.0000    0    12.011  -109.780427   20.846136  -191.272410
  18 C     6.0000    0    12.011  -111.650311   22.757972  -191.193042
  19 C     6.0000    0    12.011  -110.764597   24.902811  -189.649135
  20 C     6.0000    0    12.011  -108.240867   24.755034  -188.965810
  21 H     1.0000    0     1.008  -113.292861   22.393444  -192.151133
  22 C     6.0000    0    12.011  -112.444941   27.172372  -189.040644
  23 H     1.0000    0     1.008  -112.115751   27.746093  -187.029786
  24 H     1.0000    0     1.008  -114.503609   26.599596  -189.163476
  25 C     6.0000    0    12.011  -112.163561   29.667377  -190.480615
  26 H     1.0000    0     1.008  -110.153270   30.126014  -190.395577
  27 H     1.0000    0     1.008  -112.991072   31.143443  -189.439376
  28 C     6.0000    0    12.011  -113.014505   29.407351  -193.181033
  29 H     1.0000    0     1.008  -111.943030   27.935443  -194.275185
  30 H     1.0000    0     1.008  -112.760147   31.167631  -194.141014
  31 H     1.0000    0     1.008  -115.054275   29.011076  -193.415360
  32 H     1.0000    0     1.008  -100.980351   29.793422  -185.803543
  33 H     1.0000    0     1.008  -110.162719   19.134233  -192.376010

--------------------------------
INTERNAL COORDINATES (ANGSTROEM)
--------------------------------
 S      0   0   0     0.000000000000     0.00000000     0.00000000
 C      1   0   0     1.682049844684     0.00000000     0.00000000
 C      2   1   0     1.363996792518   112.32264338     0.00000000
 C      3   2   1     1.483096628679   110.49923573   351.63438418
 C      4   3   2     1.387438549991   115.18291486     5.20781791
 H      4   3   2     1.056782465789   122.11427131   173.73819532
 C      3   2   1     1.512935259686   130.78303647   166.76452466
 H      7   3   2     1.095123645987   113.78596438   145.72763363
 H      7   3   2     1.047206178362    99.23920817    41.78252782
 C      7   3   2     1.529018639520   122.20017972   281.65349549
 H     10   7   3     1.102650792409   113.98946214   292.28379458
 H     10   7   3     1.107144945344   109.39874922    54.32120281
 C     10   7   3     1.552072482199   111.10272096   181.15039514
 H     13  10   7     1.106962492590   117.28525937   187.52316935
 H     13  10   7     1.057540363296   113.89200543   318.49193983
 H     13  10   7     1.079213204145   104.66419300    67.95166844
 S      5   4   3     2.759633154968   128.31306477   119.86713530
 C     17   5   4     1.745671589962   119.13777897   105.38172758
 C     18  17   5     1.415772276886   113.24572030     1.63636513
 C     19  18  17     1.474921587746   110.13508882   353.96941578
 C     20  19  18     1.385795818294   114.03908887     9.22738457
 H     19  18  17     1.024581890334   116.34030547   174.82683168
 C     20  19  18     1.528646996530   122.44056313   184.81606177
 H     23  20  19     1.120190791785   108.81855829   139.91001786
 H     23  20  19     1.132646003833   109.70313835    24.28689587
 C     23  20  19     1.531668142908   121.05753200   258.67979108
 H     26  23  20     1.092061687818   105.41269370   309.06634464
 H     26  23  20     1.051415531557   109.82688057   199.13495635
 C     26  23  20     1.504574640887   111.38166117    68.99674047
 H     29  26  23     1.124017442035   113.68099330   300.94126192
 H     29  26  23     1.069520177463   109.49978303   181.10842167
 H     29  26  23     1.106550699245   114.56380568    65.29244741
 H      2   1   3     1.056006557745   124.37205440   171.17143655
 H     18  17   5     1.096647664476   127.84164683   174.07567773

---------------------------
INTERNAL COORDINATES (A.U.)
---------------------------
 S      0   0   0     0.000000000000     0.00000000     0.00000000
 C      1   0   0     3.178613550057     0.00000000     0.00000000
 C      2   1   0     2.577580385406   112.32264338     0.00000000
 C      3   2   1     2.802646458346   110.49923573   351.63438418
 C      4   3   2     2.621878887127   115.18291486     5.20781791
 H      4   3   2     1.997029443472   122.11427131   173.73819532
 C      3   2   1     2.859033299159   130.78303647   166.76452466
 H      7   3   2     2.069483773697   113.78596438   145.72763363
 H      7   3   2     1.978932882855    99.23920817    41.78252782
 C      7   3   2     2.889426482354   122.20017972   281.65349549
 H     10   7   3     2.083708019004   113.98946214   292.28379458
 H     10   7   3     2.092200737255   109.39874922    54.32120281
 C     10   7   3     2.932991931352   111.10272096   181.15039514
 H     13  10   7     2.091855951517   117.28525937   187.52316935
 H     13  10   7     1.998461662197   113.89200543   318.49193983
 H     13  10   7     2.039417395945   104.66419300    67.95166844
 S      5   4   3     5.214950892979   128.31306477   119.86713530
 C     17   5   4     3.298841224795   119.13777897   105.38172758
 C     18  17   5     2.675421871313   113.24572030     1.63636513
 C     19  18  17     2.787197869849   110.13508882   353.96941578
 C     20  19  18     2.618774574108   114.03908887     9.22738457
 H     19  18  17     1.936179174506   116.34030547   174.82683168
 C     20  19  18     2.888724178883   122.44056313   184.81606177
 H     23  20  19     2.116853814214   108.81855829   139.91001786
 H     23  20  19     2.140390753926   109.70313835    24.28689587
 C     23  20  19     2.894433318148   121.05753200   258.67979108
 H     26  23  20     2.063697511324   105.41269370   309.06634464
 H     26  23  20     1.986887407595   109.82688057   199.13495635
 C     26  23  20     2.843234019319   111.38166117    68.99674047
 H     29  26  23     2.124085135198   113.68099330   300.94126192
 H     29  26  23     2.021100230107   109.49978303   181.10842167
 H     29  26  23     2.091077774872   114.56380568    65.29244741
 H      2   1   3     1.995563189763   124.37205440   171.17143655
 H     18  17   5     2.072363751263   127.84164683   174.07567773

---------------------
BASIS SET INFORMATION
---------------------
There are 3 groups of distinct atoms

 Group   1 Type S   : 10s7p1d contracted to 4s3p1d pattern {5311/511/1}
 Group   2 Type C   : 7s4p1d contracted to 3s2p1d pattern {511/31/1}
 Group   3 Type H   : 4s1p contracted to 2s1p pattern {31/1}

Atom   0S    basis set group =>   1
Atom   1C    basis set group =>   2
Atom   2C    basis set group =>   2
Atom   3C    basis set group =>   2
Atom   4C    basis set group =>   2
Atom   5H    basis set group =>   3
Atom   6C    basis set group =>   2
Atom   7H    basis set group =>   3
Atom   8H    basis set group =>   3
Atom   9C    basis set group =>   2
Atom  10H    basis set group =>   3
Atom  11H    basis set group =>   3
Atom  12C    basis set group =>   2
Atom  13H    basis set group =>   3
Atom  14H    basis set group =>   3
Atom  15H    basis set group =>   3
Atom  16S    basis set group =>   1
Atom  17C    basis set group =>   2
Atom  18C    basis set group =>   2
Atom  19C    basis set group =>   2
Atom  20C    basis set group =>   2
Atom  21H    basis set group =>   3
Atom  22C    basis set group =>   2
Atom  23H    basis set group =>   3
Atom  24H    basis set group =>   3
Atom  25C    basis set group =>   2
Atom  26H    basis set group =>   3
Atom  27H    basis set group =>   3
Atom  28C    basis set group =>   2
Atom  29H    basis set group =>   3
Atom  30H    basis set group =>   3
Atom  31H    basis set group =>   3
Atom  32H    basis set group =>   3
Atom  33H    basis set group =>   3


           ************************************************************
           *        Program running with 24 parallel MPI-processes    *
           *              working on a common directory               *
           ************************************************************
------------------------------------------------------------------------------
                           ORCA GTO INTEGRAL CALCULATION
------------------------------------------------------------------------------

                         BASIS SET STATISTICS AND STARTUP INFO

 # of primitive gaussian shells          ...  294
 # of primitive gaussian functions       ...  534
 # of contracted shells                  ...  154
 # of contracted basis functions         ...  322
 Highest angular momentum                ...    2
 Maximum contraction depth               ...    5
 Integral package used                   ... LIBINT
 Integral threshhold            Thresh   ...  1.000e-10
 Primitive cut-off              TCut     ...  1.000e-11


------------------------------ INTEGRAL EVALUATION ----------------------------


 * One electron integrals 
 Pre-screening matrix                    ... done
 Shell pair data                         ... done (   0.003 sec)



           ************************************************************
           *        Program running with 24 parallel MPI-processes    *
           *              working on a common directory               *
           ************************************************************
-------------------------------------------------------------------------------
                                 ORCA SCF
-------------------------------------------------------------------------------

------------
SCF SETTINGS
------------
Hamiltonian:
 Density Functional     Method          .... DFT(GTOs)
 Exchange Functional    Exchange        .... WB97X-D3
 Correlation Functional Correlation     .... WB97X-D3
 Gradients option       PostSCFGGA      .... off
 Hybrid DFT is turned on
   Fraction HF Exchange ScalHFX         ....  0.195728
   Scaling of DF-GGA-X  ScalDFX         ....  0.000000
   Scaling of DF-GGA-C  ScalDFC         ....  1.000000
   Scaling of DF-LDA-C  ScalLDAC        ....  1.000000
   Perturbative correction              ....  0.000000
   Density functional embedding theory  .... OFF
 Long-range corrected/Screened/Range-Separated Hybrid DFT is turned on
   Amount of maximum screened exact exchange              ....  0.804272
   Range separation parameter mu (erf(mu*r12)/r12)        ....  0.250000


General Settings:
 Integral files         IntName         .... config_6645
 Hartree-Fock type      HFTyp           .... RHF
 Total Charge           Charge          ....    0
 Multiplicity           Mult            ....    1
 Number of Electrons    NEL             ....  134
 Basis Dimension        Dim             ....  322
 Nuclear Repulsion      ENuc            ....   1271.3246032278 Eh

Convergence Acceleration:
 DIIS                   CNVDIIS         .... on
   Start iteration      DIISMaxIt       ....    12
   Startup error        DIISStart       ....  0.200000
   # of expansion vecs  DIISMaxEq       ....     5
   Bias factor          DIISBfac        ....   1.050
   Max. coefficient     DIISMaxC        ....  10.000
 Newton-Raphson         CNVNR           .... off
 SOSCF                  CNVSOSCF        .... on
   Start iteration      SOSCFMaxIt      ....   150
   Startup grad/error   SOSCFStart      ....  0.003300
 Level Shifting         CNVShift        .... on
   Level shift para.    LevelShift      ....    0.2500
   Turn off err/grad.   ShiftErr        ....    0.0010
 Zerner damping         CNVZerner       .... off
 Static damping         CNVDamp         .... on
   Fraction old density DampFac         ....    0.7000
   Max. Damping (<1)    DampMax         ....    0.9800
   Min. Damping (>=0)   DampMin         ....    0.0000
   Turn off err/grad.   DampErr         ....    0.1000
 Fernandez-Rico         CNVRico         .... off

SCF Procedure:
 Maximum # iterations   MaxIter         ....   125
 SCF integral mode      SCFMode         .... Direct
   Integral package                     .... LIBINT
 Reset frequency        DirectResetFreq ....    20
 Integral Threshold     Thresh          ....  1.000e-10 Eh
 Primitive CutOff       TCut            ....  1.000e-11 Eh

Convergence Tolerance:
 Convergence Check Mode ConvCheckMode   .... Total+1el-Energy
 Convergence forced     ConvForced      .... 0
 Energy Change          TolE            ....  1.000e-06 Eh
 1-El. energy change                    ....  1.000e-03 Eh
 Orbital Gradient       TolG            ....  5.000e-05
 Orbital Rotation angle TolX            ....  5.000e-05
 DIIS Error             TolErr          ....  1.000e-06


Diagonalization of the overlap matrix:
Smallest eigenvalue                        ... 7.631e-04
Time for diagonalization                   ...    0.014 sec
Threshold for overlap eigenvalues          ... 1.000e-08
Number of eigenvalues below threshold      ... 0
Time for construction of square roots      ...    0.029 sec
Total time needed                          ...    0.043 sec

-------------------
DFT GRID GENERATION
-------------------

General Integration Accuracy     IntAcc      ...  4.340
Radial Grid Type                 RadialGrid  ... Gauss-Chebyshev
Angular Grid (max. acc.)         AngularGrid ... Lebedev-110
Angular grid pruning method      GridPruning ... 3 (G Style)
Weight generation scheme         WeightScheme... Becke
Basis function cutoff            BFCut       ...    1.0000e-10
Integration weight cutoff        WCut        ...    1.0000e-14
Grids for H and He will be reduced by one unit

# of grid points (after initial pruning)     ...  41088 (   0.0 sec)
# of grid points (after weights+screening)   ...  37098 (   0.0 sec)
nearest neighbour list constructed           ...    0.0 sec
Grid point re-assignment to atoms done       ...    0.0 sec
Grid point division into batches done        ...    0.0 sec
Reduced shell lists constructed in    0.1 sec

Total number of grid points                  ...    37098
Total number of batches                      ...      597
Average number of points per batch           ...       62
Average number of grid points per atom       ...     1091
Average number of shells per batch           ...    75.31 (48.90%)
Average number of basis functions per batch  ...   147.92 (45.94%)
Average number of large shells per batch     ...    48.54 (64.45%)
Average number of large basis fcns per batch ...    99.31 (67.13%)
Maximum spatial batch extension              ...  14.17, 19.49, 15.20 au
Average spatial batch extension              ...   0.14,  0.15,  0.16 au

Time for grid setup =    0.145 sec

------------------------------
INITIAL GUESS: MODEL POTENTIAL
------------------------------
Loading Hartree-Fock densities                     ... done
Calculating cut-offs                               ... done
Setting up the integral package                    ... done
Initializing the effective Hamiltonian             ... done
Starting the Coulomb interaction                   ... done (   0.0 sec)
Reading the grid                                   ... done
Mapping shells                                     ... done
Starting the XC term evaluation                    ... done (   0.0 sec)
  promolecular density results
     # of electrons  =    133.983560800
     EX              =   -126.710564483
     EC              =     -4.614004214
     EX+EC           =   -131.324568697
Transforming the Hamiltonian                       ... done (   0.0 sec)
Diagonalizing the Hamiltonian                      ... done (   0.0 sec)
Back transforming the eigenvectors                 ... done (   0.0 sec)
Now organizing SCF variables                       ... done
                      ------------------
                      INITIAL GUESS DONE (   0.3 sec)
                      ------------------
--------------
SCF ITERATIONS
--------------
ITER       Energy         Delta-E        Max-DP      RMS-DP      [F,P]     Damp
               ***  Starting incremental Fock matrix formation  ***
  0  -1339.4264090981   0.000000000000 0.06598714  0.00152263  0.1626904 0.7000
  1  -1339.6065167306  -0.180107632455 0.04438692  0.00111794  0.0989156 0.7000
                               ***Turning on DIIS***
  2  -1339.6952208208  -0.088704090201 0.07947003  0.00213262  0.0517929 0.0000
  3  -1339.8301892839  -0.134968463135 0.04365995  0.00093615  0.0365558 0.0000
  4  -1339.8580543008  -0.027865016928 0.00734028  0.00019358  0.0073677 0.0000
                      *** Initiating the SOSCF procedure ***
                           *** Shutting down DIIS ***
                      *** Re-Reading the Fockian *** 
                      *** Removing any level shift *** 
ITER      Energy       Delta-E        Grad      Rot      Max-DP    RMS-DP
  5  -1339.85891332  -0.0008590155  0.001696  0.001696  0.003289  0.000099
               *** Restarting incremental Fock matrix formation ***
  6  -1339.85909538  -0.0001820685  0.001379  0.003868  0.001994  0.000064
  7  -1339.85915848  -0.0000630965  0.000804  0.005077  0.002682  0.000066
  8  -1339.85917538  -0.0000168951  0.000354  0.000741  0.000780  0.000021
  9  -1339.85918048  -0.0000051064  0.000155  0.000360  0.000314  0.000009
 10  -1339.85918103  -0.0000005515  0.000047  0.000216  0.000149  0.000004
                 **** Energy Check signals convergence ****
              ***Rediagonalizing the Fockian in SOSCF/NRSCF***

               *****************************************************
               *                     SUCCESS                       *
               *           SCF CONVERGED AFTER  11 CYCLES          *
               *****************************************************

Setting up the final grid:

General Integration Accuracy     IntAcc      ...  4.670
Radial Grid Type                 RadialGrid  ... Gauss-Chebyshev
Angular Grid (max. acc.)         AngularGrid ... Lebedev-302
Angular grid pruning method      GridPruning ... 3 (G Style)
Weight generation scheme         WeightScheme... Becke
Basis function cutoff            BFCut       ...    1.0000e-10
Integration weight cutoff        WCut        ...    1.0000e-14
Grids for H and He will be reduced by one unit

# of grid points (after initial pruning)     ... 161752 (   0.0 sec)
# of grid points (after weights+screening)   ... 143203 (   0.1 sec)
nearest neighbour list constructed           ...    0.0 sec
Grid point re-assignment to atoms done       ...    0.0 sec
Grid point division into batches done        ...    0.5 sec
Reduced shell lists constructed in    0.5 sec

Total number of grid points                  ...   143203
Total number of batches                      ...     2256
Average number of points per batch           ...       63
Average number of grid points per atom       ...     4212
Average number of shells per batch           ...    68.46 (44.46%)
Average number of basis functions per batch  ...   134.04 (41.63%)
Average number of large shells per batch     ...    42.57 (62.18%)
Average number of large basis fcns per batch ...    87.24 (65.09%)
Maximum spatial batch extension              ...  12.16, 14.58, 13.09 au
Average spatial batch extension              ...   0.10,  0.10,  0.10 au

Final grid set up in    0.9 sec
Final integration                            ... done (   0.2 sec)
Change in XC energy                          ...     0.006854475
Integrated number of electrons               ...   133.999923992
Previous integrated no of electrons          ...   133.993968450

----------------
TOTAL SCF ENERGY
----------------

Total Energy       :        -1339.85232681 Eh          -36459.23536 eV

Components:
Nuclear Repulsion  :         1271.32460323 Eh           34594.50120 eV
Electronic Energy  :        -2611.17693004 Eh          -71053.73657 eV
One Electron Energy:        -4359.27589952 Eh         -118621.92785 eV
Two Electron Energy:         1748.09896949 Eh           47568.19128 eV

Virial components:
Potential Energy   :        -2671.33220086 Eh          -72690.64471 eV
Kinetic Energy     :         1331.47987405 Eh           36231.40934 eV
Virial Ratio       :            2.00628808


DFT components:
N(Alpha)           :       66.999961996108 electrons
N(Beta)            :       66.999961996108 electrons
N(Total)           :      133.999923992216 electrons
E(XC)              :      -94.250754359209 Eh       
DFET-embed. en.    :        0.000000000000 Eh       

---------------
SCF CONVERGENCE
---------------

  Last Energy change         ...   -2.5164e-07  Tolerance :   1.0000e-06
  Last MAX-Density change    ...    3.9537e-05  Tolerance :   1.0000e-05
  Last RMS-Density change    ...    7.8624e-07  Tolerance :   1.0000e-06
  Last Orbital Gradient      ...    9.5979e-06  Tolerance :   5.0000e-05
  Last Orbital Rotation      ...    3.2010e-05  Tolerance :   5.0000e-05

             **** THE GBW FILE WAS UPDATED (config_6645.gbw) ****
             **** DENSITY FILE WAS UPDATED (config_6645.scfp) ****
             **** ENERGY FILE WAS UPDATED (config_6645.en.tmp) ****
             **** THE GBW FILE WAS UPDATED (config_6645.gbw) ****
             **** DENSITY FILE WAS UPDATED (config_6645.scfp) ****
----------------
ORBITAL ENERGIES
----------------

  NO   OCC          E(Eh)            E(eV) 
   0   2.0000     -88.966904     -2420.9125 
   1   2.0000     -88.964108     -2420.8364 
   2   2.0000     -10.331078      -281.1229 
   3   2.0000     -10.329340      -281.0756 
   4   2.0000     -10.322207      -280.8815 
   5   2.0000     -10.312597      -280.6200 
   6   2.0000     -10.310902      -280.5739 
   7   2.0000     -10.303614      -280.3756 
   8   2.0000     -10.296703      -280.1875 
   9   2.0000     -10.295016      -280.1416 
  10   2.0000     -10.293461      -280.0993 
  11   2.0000     -10.293135      -280.0904 
  12   2.0000     -10.289467      -279.9906 
  13   2.0000     -10.277925      -279.6766 
  14   2.0000     -10.276484      -279.6373 
  15   2.0000     -10.272913      -279.5402 
  16   2.0000      -8.080853      -219.8912 
  17   2.0000      -8.079889      -219.8650 
  18   2.0000      -6.039437      -164.3414 
  19   2.0000      -6.038413      -164.3136 
  20   2.0000      -6.035468      -164.2334 
  21   2.0000      -6.034130      -164.1970 
  22   2.0000      -6.031571      -164.1274 
  23   2.0000      -6.030660      -164.1026 
  24   2.0000      -1.005699       -27.3665 
  25   2.0000      -0.979602       -26.6563 
  26   2.0000      -0.912559       -24.8320 
  27   2.0000      -0.906093       -24.6560 
  28   2.0000      -0.874817       -23.8050 
  29   2.0000      -0.849446       -23.1146 
  30   2.0000      -0.843637       -22.9565 
  31   2.0000      -0.815737       -22.1973 
  32   2.0000      -0.781848       -21.2752 
  33   2.0000      -0.771370       -20.9900 
  34   2.0000      -0.711934       -19.3727 
  35   2.0000      -0.705530       -19.1985 
  36   2.0000      -0.686753       -18.6875 
  37   2.0000      -0.663507       -18.0549 
  38   2.0000      -0.649191       -17.6654 
  39   2.0000      -0.618636       -16.8339 
  40   2.0000      -0.585933       -15.9440 
  41   2.0000      -0.577221       -15.7070 
  42   2.0000      -0.562689       -15.3115 
  43   2.0000      -0.548329       -14.9208 
  44   2.0000      -0.541070       -14.7233 
  45   2.0000      -0.529097       -14.3974 
  46   2.0000      -0.517462       -14.0808 
  47   2.0000      -0.514709       -14.0060 
  48   2.0000      -0.507224       -13.8023 
  49   2.0000      -0.502959       -13.6862 
  50   2.0000      -0.485634       -13.2148 
  51   2.0000      -0.474268       -12.9055 
  52   2.0000      -0.472248       -12.8505 
  53   2.0000      -0.466773       -12.7016 
  54   2.0000      -0.458580       -12.4786 
  55   2.0000      -0.446647       -12.1539 
  56   2.0000      -0.441061       -12.0019 
  57   2.0000      -0.436495       -11.8776 
  58   2.0000      -0.430238       -11.7074 
  59   2.0000      -0.424129       -11.5411 
  60   2.0000      -0.420724       -11.4485 
  61   2.0000      -0.411713       -11.2033 
  62   2.0000      -0.408911       -11.1270 
  63   2.0000      -0.345541        -9.4026 
  64   2.0000      -0.329499        -8.9661 
  65   2.0000      -0.322346        -8.7715 
  66   2.0000      -0.299384        -8.1466 
  67   0.0000       0.034304         0.9335 
  68   0.0000       0.057913         1.5759 
  69   0.0000       0.112539         3.0623 
  70   0.0000       0.118027         3.2117 
  71   0.0000       0.126931         3.4540 
  72   0.0000       0.133870         3.6428 
  73   0.0000       0.152342         4.1454 
  74   0.0000       0.157500         4.2858 
  75   0.0000       0.167867         4.5679 
  76   0.0000       0.170259         4.6330 
  77   0.0000       0.182432         4.9642 
  78   0.0000       0.189912         5.1678 
  79   0.0000       0.192505         5.2383 
  80   0.0000       0.196789         5.3549 
  81   0.0000       0.212490         5.7822 
  82   0.0000       0.214209         5.8289 
  83   0.0000       0.217914         5.9297 
  84   0.0000       0.221169         6.0183 
  85   0.0000       0.227256         6.1839 
  86   0.0000       0.233842         6.3632 
  87   0.0000       0.244149         6.6436 
  88   0.0000       0.245230         6.6731 
  89   0.0000       0.249523         6.7899 
  90   0.0000       0.252931         6.8826 
  91   0.0000       0.253936         6.9099 
  92   0.0000       0.264806         7.2057 
  93   0.0000       0.294053         8.0016 
  94   0.0000       0.306650         8.3444 
  95   0.0000       0.311150         8.4668 
  96   0.0000       0.331688         9.0257 
  97   0.0000       0.345820         9.4102 
  98   0.0000       0.346637         9.4325 
  99   0.0000       0.358977         9.7683 
 100   0.0000       0.388681        10.5765 
 101   0.0000       0.398546        10.8450 
 102   0.0000       0.411368        11.1939 
 103   0.0000       0.412913        11.2359 
 104   0.0000       0.430827        11.7234 
 105   0.0000       0.440914        11.9979 
 106   0.0000       0.461611        12.5611 
 107   0.0000       0.475831        12.9480 
 108   0.0000       0.490557        13.3487 
 109   0.0000       0.495035        13.4706 
 110   0.0000       0.500116        13.6088 
 111   0.0000       0.507646        13.8138 
 112   0.0000       0.518358        14.1052 
 113   0.0000       0.524107        14.2617 
 114   0.0000       0.528046        14.3689 
 115   0.0000       0.532639        14.4938 
 116   0.0000       0.542838        14.7714 
 117   0.0000       0.545019        14.8307 
 118   0.0000       0.556373        15.1397 
 119   0.0000       0.567619        15.4457 
 120   0.0000       0.576066        15.6756 
 121   0.0000       0.586528        15.9602 
 122   0.0000       0.597770        16.2661 
 123   0.0000       0.604013        16.4360 
 124   0.0000       0.619801        16.8657 
 125   0.0000       0.627389        17.0721 
 126   0.0000       0.631273        17.1778 
 127   0.0000       0.635301        17.2874 
 128   0.0000       0.653675        17.7874 
 129   0.0000       0.660908        17.9842 
 130   0.0000       0.681403        18.5419 
 131   0.0000       0.683748        18.6057 
 132   0.0000       0.695338        18.9211 
 133   0.0000       0.702201        19.1079 
 134   0.0000       0.705989        19.2109 
 135   0.0000       0.711988        19.3742 
 136   0.0000       0.720254        19.5991 
 137   0.0000       0.727089        19.7851 
 138   0.0000       0.731379        19.9018 
 139   0.0000       0.743821        20.2404 
 140   0.0000       0.744685        20.2639 
 141   0.0000       0.747762        20.3477 
 142   0.0000       0.749433        20.3931 
 143   0.0000       0.754406        20.5284 
 144   0.0000       0.764412        20.8007 
 145   0.0000       0.771530        20.9944 
 146   0.0000       0.774181        21.0665 
 147   0.0000       0.776056        21.1175 
 148   0.0000       0.777345        21.1526 
 149   0.0000       0.789197        21.4751 
 150   0.0000       0.790679        21.5155 
 151   0.0000       0.794854        21.6291 
 152   0.0000       0.795906        21.6577 
 153   0.0000       0.798547        21.7296 
 154   0.0000       0.804208        21.8836 
 155   0.0000       0.804919        21.9030 
 156   0.0000       0.809472        22.0269 
 157   0.0000       0.811032        22.0693 
 158   0.0000       0.813536        22.1374 
 159   0.0000       0.821829        22.3631 
 160   0.0000       0.826856        22.4999 
 161   0.0000       0.831829        22.6352 
 162   0.0000       0.833506        22.6808 
 163   0.0000       0.844763        22.9872 
 164   0.0000       0.850404        23.1407 
 165   0.0000       0.861993        23.4560 
 166   0.0000       0.866840        23.5879 
 167   0.0000       0.872871        23.7520 
 168   0.0000       0.882296        24.0085 
 169   0.0000       0.900713        24.5096 
 170   0.0000       0.905656        24.6442 
 171   0.0000       0.926824        25.2202 
 172   0.0000       0.928069        25.2540 
 173   0.0000       0.941606        25.6224 
 174   0.0000       0.960326        26.1318 
 175   0.0000       0.973599        26.4930 
 176   0.0000       0.981918        26.7193 
 177   0.0000       1.002539        27.2805 
 178   0.0000       1.019692        27.7472 
 179   0.0000       1.021647        27.8004 
 180   0.0000       1.043036        28.3825 
 181   0.0000       1.058934        28.8151 
 182   0.0000       1.068409        29.0729 
 183   0.0000       1.100389        29.9431 
 184   0.0000       1.123334        30.5675 
 185   0.0000       1.135130        30.8885 
 186   0.0000       1.149021        31.2665 
 187   0.0000       1.160178        31.5700 
 188   0.0000       1.180516        32.1235 
 189   0.0000       1.199446        32.6386 
 190   0.0000       1.214185        33.0397 
 191   0.0000       1.228232        33.4219 
 192   0.0000       1.254762        34.1438 
 193   0.0000       1.267037        34.4778 
 194   0.0000       1.281234        34.8641 
 195   0.0000       1.322324        35.9823 
 196   0.0000       1.326296        36.0903 
 197   0.0000       1.333103        36.2756 
 198   0.0000       1.350304        36.7436 
 199   0.0000       1.359433        36.9921 
 200   0.0000       1.365153        37.1477 
 201   0.0000       1.390243        37.8304 
 202   0.0000       1.414340        38.4862 
 203   0.0000       1.428255        38.8648 
 204   0.0000       1.444999        39.3204 
 205   0.0000       1.467461        39.9316 
 206   0.0000       1.482049        40.3286 
 207   0.0000       1.522662        41.4337 
 208   0.0000       1.531825        41.6831 
 209   0.0000       1.553780        42.2805 
 210   0.0000       1.586761        43.1780 
 211   0.0000       1.610020        43.8109 
 212   0.0000       1.627474        44.2858 
 213   0.0000       1.641346        44.6633 
 214   0.0000       1.653681        44.9989 
 215   0.0000       1.658884        45.1405 
 216   0.0000       1.686654        45.8962 
 217   0.0000       1.698927        46.2301 
 218   0.0000       1.742621        47.4191 
 219   0.0000       1.766563        48.0706 
 220   0.0000       1.769661        48.1549 
 221   0.0000       1.796102        48.8744 
 222   0.0000       1.799125        48.9567 
 223   0.0000       1.818877        49.4942 
 224   0.0000       1.820489        49.5380 
 225   0.0000       1.834480        49.9187 
 226   0.0000       1.841828        50.1187 
 227   0.0000       1.846196        50.2376 
 228   0.0000       1.864934        50.7474 
 229   0.0000       1.874230        51.0004 
 230   0.0000       1.879027        51.1309 
 231   0.0000       1.881352        51.1942 
 232   0.0000       1.888038        51.3761 
 233   0.0000       1.899019        51.6749 
 234   0.0000       1.903604        51.7997 
 235   0.0000       1.908155        51.9235 
 236   0.0000       1.918813        52.2135 
 237   0.0000       1.923788        52.3489 
 238   0.0000       1.932564        52.5877 
 239   0.0000       1.939769        52.7838 
 240   0.0000       1.941532        52.8318 
 241   0.0000       1.957977        53.2793 
 242   0.0000       1.964688        53.4619 
 243   0.0000       1.970039        53.6075 
 244   0.0000       1.982809        53.9550 
 245   0.0000       1.990888        54.1748 
 246   0.0000       2.005002        54.5589 
 247   0.0000       2.011424        54.7336 
 248   0.0000       2.022476        55.0344 
 249   0.0000       2.028788        55.2061 
 250   0.0000       2.048400        55.7398 
 251   0.0000       2.056425        55.9582 
 252   0.0000       2.063270        56.1444 
 253   0.0000       2.087143        56.7940 
 254   0.0000       2.089273        56.8520 
 255   0.0000       2.104636        57.2701 
 256   0.0000       2.111766        57.4641 
 257   0.0000       2.119667        57.6791 
 258   0.0000       2.128667        57.9240 
 259   0.0000       2.150799        58.5262 
 260   0.0000       2.171484        59.0891 
 261   0.0000       2.178577        59.2821 
 262   0.0000       2.194991        59.7287 
 263   0.0000       2.204815        59.9961 
 264   0.0000       2.209128        60.1134 
 265   0.0000       2.246807        61.1387 
 266   0.0000       2.255817        61.3839 
 267   0.0000       2.274976        61.9052 
 268   0.0000       2.299331        62.5680 
 269   0.0000       2.318012        63.0763 
 270   0.0000       2.343830        63.7789 
 271   0.0000       2.348601        63.9087 
 272   0.0000       2.366835        64.4049 
 273   0.0000       2.396259        65.2055 
 274   0.0000       2.409681        65.5708 
 275   0.0000       2.424667        65.9785 
 276   0.0000       2.433998        66.2325 
 277   0.0000       2.446201        66.5645 
 278   0.0000       2.464090        67.0513 
 279   0.0000       2.467676        67.1489 
 280   0.0000       2.486611        67.6641 
 281   0.0000       2.504472        68.1502 
 282   0.0000       2.510212        68.3063 
 283   0.0000       2.528644        68.8079 
 284   0.0000       2.538800        69.0843 
 285   0.0000       2.554608        69.5144 
 286   0.0000       2.574414        70.0534 
 287   0.0000       2.601011        70.7771 
 288   0.0000       2.611427        71.0605 
 289   0.0000       2.636873        71.7530 
 290   0.0000       2.649606        72.0994 
 291   0.0000       2.658616        72.3446 
 292   0.0000       2.671939        72.7071 
 293   0.0000       2.688608        73.1607 
 294   0.0000       2.706372        73.6441 
 295   0.0000       2.723823        74.1190 
 296   0.0000       2.747856        74.7730 
 297   0.0000       2.773228        75.4634 
 298   0.0000       2.792949        76.0000 
 299   0.0000       2.818437        76.6936 
 300   0.0000       2.854541        77.6760 
 301   0.0000       2.875338        78.2419 
 302   0.0000       2.890944        78.6666 
 303   0.0000       2.910295        79.1931 
 304   0.0000       2.965346        80.6912 
 305   0.0000       2.983131        81.1751 
 306   0.0000       2.999360        81.6167 
 307   0.0000       3.017532        82.1112 
 308   0.0000       3.023714        82.2794 
 309   0.0000       3.054887        83.1277 
 310   0.0000       3.070481        83.5520 
 311   0.0000       3.087477        84.0145 
 312   0.0000       3.105792        84.5129 
 313   0.0000       3.123047        84.9824 
 314   0.0000       3.152175        85.7751 
 315   0.0000       3.162389        86.0530 
 316   0.0000       3.206284        87.2474 
 317   0.0000       3.219719        87.6130 
 318   0.0000       3.239662        88.1557 
 319   0.0000       3.262194        88.7688 
 320   0.0000       3.385213        92.1163 
 321   0.0000       3.427431        93.2651 

                    ********************************
                    * MULLIKEN POPULATION ANALYSIS *
                    ********************************

-----------------------
MULLIKEN ATOMIC CHARGES
-----------------------
   0 S :    0.112503
   1 C :   -0.089257
   2 C :   -0.108283
   3 C :    0.062340
   4 C :   -0.169893
   5 H :    0.002911
   6 C :    0.064057
   7 H :    0.013972
   8 H :    0.003989
   9 C :   -0.043048
  10 H :    0.035550
  11 H :    0.034077
  12 C :   -0.048188
  13 H :    0.047509
  14 H :    0.014018
  15 H :    0.016862
  16 S :    0.113527
  17 C :   -0.103878
  18 C :   -0.012868
  19 C :   -0.008437
  20 C :   -0.158584
  21 H :   -0.009052
  22 C :    0.012886
  23 H :    0.029943
  24 H :    0.027035
  25 C :   -0.014912
  26 H :    0.025353
  27 H :    0.015748
  28 C :   -0.061455
  29 H :    0.047070
  30 H :    0.024232
  31 H :    0.024553
  32 H :    0.034406
  33 H :    0.065313
Sum of atomic charges:   -0.0000000

--------------------------------
MULLIKEN REDUCED ORBITAL CHARGES
--------------------------------
  0 S s       :     5.838085  s :     5.838085
      pz      :     3.327630  p :     9.934535
      px      :     3.142299
      py      :     3.464606
      dz2     :     0.025248  d :     0.114877
      dxz     :     0.027063
      dyz     :     0.022572
      dx2y2   :     0.024609
      dxy     :     0.015385
  1 C s       :     3.156626  s :     3.156626
      pz      :     0.905080  p :     2.895791
      px      :     0.955633
      py      :     1.035078
      dz2     :     0.009392  d :     0.036840
      dxz     :     0.008571
      dyz     :     0.009839
      dx2y2   :     0.004403
      dxy     :     0.004635
  2 C s       :     3.088903  s :     3.088903
      pz      :     0.974891  p :     2.976135
      px      :     0.987207
      py      :     1.014036
      dz2     :     0.011042  d :     0.043246
      dxz     :     0.012146
      dyz     :     0.008812
      dx2y2   :     0.005633
      dxy     :     0.005614
  3 C s       :     3.183266  s :     3.183266
      pz      :     0.862566  p :     2.721494
      px      :     0.906427
      py      :     0.952501
      dz2     :     0.008440  d :     0.032900
      dxz     :     0.009213
      dyz     :     0.006952
      dx2y2   :     0.004125
      dxy     :     0.004170
  4 C s       :     3.078600  s :     3.078600
      pz      :     0.983822  p :     3.046665
      px      :     0.966704
      py      :     1.096139
      dz2     :     0.011073  d :     0.044627
      dxz     :     0.011203
      dyz     :     0.009319
      dx2y2   :     0.006355
      dxy     :     0.006677
  5 H s       :     0.972456  s :     0.972456
      pz      :     0.008144  p :     0.024633
      px      :     0.009637
      py      :     0.006852
  6 C s       :     2.931451  s :     2.931451
      pz      :     0.936984  p :     2.967595
      px      :     1.017662
      py      :     1.012949
      dz2     :     0.010653  d :     0.036897
      dxz     :     0.007311
      dyz     :     0.005815
      dx2y2   :     0.006486
      dxy     :     0.006631
  7 H s       :     0.962763  s :     0.962763
      pz      :     0.005572  p :     0.023265
      px      :     0.011870
      py      :     0.005823
  8 H s       :     0.969470  s :     0.969470
      pz      :     0.005985  p :     0.026541
      px      :     0.007621
      py      :     0.012935
  9 C s       :     3.058252  s :     3.058252
      pz      :     0.934240  p :     2.948894
      px      :     1.009509
      py      :     1.005145
      dz2     :     0.008912  d :     0.035902
      dxz     :     0.007424
      dyz     :     0.006194
      dx2y2   :     0.008029
      dxy     :     0.005343
 10 H s       :     0.941924  s :     0.941924
      pz      :     0.004827  p :     0.022526
      px      :     0.005501
      py      :     0.012198
 11 H s       :     0.944461  s :     0.944461
      pz      :     0.004814  p :     0.021463
      px      :     0.012338
      py      :     0.004310
 12 C s       :     3.016296  s :     3.016296
      pz      :     0.961342  p :     3.003213
      px      :     1.019734
      py      :     1.022137
      dz2     :     0.006855  d :     0.028679
      dxz     :     0.006036
      dyz     :     0.005196
      dx2y2   :     0.008721
      dxy     :     0.001871
 13 H s       :     0.929519  s :     0.929519
      pz      :     0.007348  p :     0.022972
      px      :     0.008592
      py      :     0.007032
 14 H s       :     0.960414  s :     0.960414
      pz      :     0.004547  p :     0.025568
      px      :     0.006375
      py      :     0.014646
 15 H s       :     0.957937  s :     0.957937
      pz      :     0.005568  p :     0.025201
      px      :     0.013434
      py      :     0.006199
 16 S s       :     5.847550  s :     5.847550
      pz      :     3.526293  p :     9.936978
      px      :     3.303067
      py      :     3.107618
      dz2     :     0.017046  d :     0.101945
      dxz     :     0.019354
      dyz     :     0.013553
      dx2y2   :     0.026856
      dxy     :     0.025137
 17 C s       :     3.154061  s :     3.154061
      pz      :     1.016649  p :     2.916212
      px      :     0.915017
      py      :     0.984547
      dz2     :     0.003246  d :     0.033605
      dxz     :     0.007484
      dyz     :     0.005159
      dx2y2   :     0.010109
      dxy     :     0.007607
 18 C s       :     3.191151  s :     3.191151
      pz      :     0.965643  p :     2.789807
      px      :     0.882505
      py      :     0.941659
      dz2     :     0.003871  d :     0.031911
      dxz     :     0.005616
      dyz     :     0.005838
      dx2y2   :     0.007848
      dxy     :     0.008737
 19 C s       :     3.067698  s :     3.067698
      pz      :     0.965142  p :     2.899437
      px      :     0.974069
      py      :     0.960225
      dz2     :     0.006188  d :     0.041303
      dxz     :     0.007588
      dyz     :     0.006492
      dx2y2   :     0.011280
      dxy     :     0.009755
 20 C s       :     3.066931  s :     3.066931
      pz      :     1.109023  p :     3.048632
      px      :     1.006966
      py      :     0.932643
      dz2     :     0.004742  d :     0.043021
      dxz     :     0.009297
      dyz     :     0.005579
      dx2y2   :     0.012221
      dxy     :     0.011182
 21 H s       :     0.982306  s :     0.982306
      pz      :     0.008569  p :     0.026746
      px      :     0.013356
      py      :     0.004822
 22 C s       :     3.003336  s :     3.003336
      pz      :     1.019741  p :     2.949027
      px      :     0.987109
      py      :     0.942176
      dz2     :     0.008992  d :     0.034751
      dxz     :     0.002237
      dyz     :     0.006618
      dx2y2   :     0.008447
      dxy     :     0.008457
 23 H s       :     0.947989  s :     0.947989
      pz      :     0.012956  p :     0.022068
      px      :     0.004377
      py      :     0.004735
 24 H s       :     0.952228  s :     0.952228
      pz      :     0.004149  p :     0.020737
      px      :     0.012614
      py      :     0.003974
 25 C s       :     3.000064  s :     3.000064
      pz      :     0.975639  p :     2.976650
      px      :     1.031919
      py      :     0.969092
      dz2     :     0.009305  d :     0.038198
      dxz     :     0.005222
      dyz     :     0.010668
      dx2y2   :     0.007830
      dxy     :     0.005172
 26 H s       :     0.951322  s :     0.951322
      pz      :     0.004003  p :     0.023325
      px      :     0.014409
      py      :     0.004913
 27 H s       :     0.959789  s :     0.959789
      pz      :     0.006625  p :     0.024463
      px      :     0.007711
      py      :     0.010127
 28 C s       :     3.016691  s :     3.016691
      pz      :     0.978515  p :     3.015830
      px      :     1.009399
      py      :     1.027915
      dz2     :     0.006377  d :     0.028935
      dxz     :     0.004713
      dyz     :     0.008191
      dx2y2   :     0.006902
      dxy     :     0.002751
 29 H s       :     0.930502  s :     0.930502
      pz      :     0.006031  p :     0.022428
      px      :     0.006963
      py      :     0.009434
 30 H s       :     0.951021  s :     0.951021
      pz      :     0.006797  p :     0.024746
      px      :     0.005807
      py      :     0.012143
 31 H s       :     0.952474  s :     0.952474
      pz      :     0.003918  p :     0.022973
      px      :     0.013472
      py      :     0.005583
 32 H s       :     0.940614  s :     0.940614
      pz      :     0.003443  p :     0.024981
      px      :     0.013770
      py      :     0.007768
 33 H s       :     0.911612  s :     0.911612
      pz      :     0.007883  p :     0.023075
      px      :     0.003472
      py      :     0.011721


                     *******************************
                     * LOEWDIN POPULATION ANALYSIS *
                     *******************************

----------------------
LOEWDIN ATOMIC CHARGES
----------------------
   0 S :    0.423365
   1 C :   -0.205245
   2 C :   -0.063879
   3 C :   -0.046320
   4 C :   -0.200704
   5 H :    0.023058
   6 C :   -0.041249
   7 H :    0.031639
   8 H :    0.027309
   9 C :   -0.036186
  10 H :    0.028574
  11 H :    0.024540
  12 C :   -0.065036
  13 H :    0.032127
  14 H :    0.014955
  15 H :    0.023856
  16 S :    0.392568
  17 C :   -0.186958
  18 C :   -0.061384
  19 C :   -0.044944
  20 C :   -0.191511
  21 H :    0.017519
  22 C :   -0.040360
  23 H :    0.035132
  24 H :    0.031376
  25 C :   -0.038069
  26 H :    0.028074
  27 H :    0.019774
  28 C :   -0.071526
  29 H :    0.034192
  30 H :    0.021901
  31 H :    0.023971
  32 H :    0.024735
  33 H :    0.034707

-------------------------------
LOEWDIN REDUCED ORBITAL CHARGES
-------------------------------
  0 S s       :     5.482415  s :     5.482415
      pz      :     3.362497  p :     9.950935
      px      :     3.146878
      py      :     3.441561
      dz2     :     0.030631  d :     0.143285
      dxz     :     0.033372
      dyz     :     0.027886
      dx2y2   :     0.031287
      dxy     :     0.020108
  1 C s       :     2.905847  s :     2.905847
      pz      :     1.047584  p :     3.208806
      px      :     1.077908
      py      :     1.083314
      dz2     :     0.025361  d :     0.090592
      dxz     :     0.023668
      dyz     :     0.022299
      dx2y2   :     0.009122
      dxy     :     0.010141
  2 C s       :     2.866558  s :     2.866558
      pz      :     1.050129  p :     3.091077
      px      :     1.041407
      py      :     0.999541
      dz2     :     0.030448  d :     0.106244
      dxz     :     0.032044
      dyz     :     0.017969
      dx2y2   :     0.012416
      dxy     :     0.013368
  3 C s       :     2.875706  s :     2.875706
      pz      :     1.044387  p :     3.084098
      px      :     1.032879
      py      :     1.006833
      dz2     :     0.025463  d :     0.086516
      dxz     :     0.025508
      dyz     :     0.017293
      dx2y2   :     0.008596
      dxy     :     0.009656
  4 C s       :     2.907909  s :     2.907909
      pz      :     1.094125  p :     3.186339
      px      :     1.012320
      py      :     1.079893
      dz2     :     0.029179  d :     0.106456
      dxz     :     0.026438
      dyz     :     0.021436
      dx2y2   :     0.014227
      dxy     :     0.015175
  5 H s       :     0.901949  s :     0.901949
      pz      :     0.024613  p :     0.074993
      px      :     0.029626
      py      :     0.020753
  6 C s       :     2.813450  s :     2.813450
      pz      :     1.003852  p :     3.135177
      px      :     1.070251
      py      :     1.061074
      dz2     :     0.027536  d :     0.092623
      dxz     :     0.019205
      dyz     :     0.014124
      dx2y2   :     0.015258
      dxy     :     0.016500
  7 H s       :     0.901423  s :     0.901423
      pz      :     0.017605  p :     0.066938
      px      :     0.032753
      py      :     0.016581
  8 H s       :     0.893491  s :     0.893491
      pz      :     0.018657  p :     0.079200
      px      :     0.022107
      py      :     0.038436
  9 C s       :     2.842577  s :     2.842577
      pz      :     1.005313  p :     3.107398
      px      :     1.054503
      py      :     1.047582
      dz2     :     0.022247  d :     0.086211
      dxz     :     0.017236
      dyz     :     0.014332
      dx2y2   :     0.019107
      dxy     :     0.013289
 10 H s       :     0.905540  s :     0.905540
      pz      :     0.014079  p :     0.065885
      px      :     0.016073
      py      :     0.035734
 11 H s       :     0.911609  s :     0.911609
      pz      :     0.015688  p :     0.063851
      px      :     0.035662
      py      :     0.012501
 12 C s       :     2.830393  s :     2.830393
      pz      :     1.013364  p :     3.162519
      px      :     1.073227
      py      :     1.075927
      dz2     :     0.019000  d :     0.072124
      dxz     :     0.014107
      dyz     :     0.012167
      dx2y2   :     0.021579
      dxy     :     0.005270
 13 H s       :     0.904260  s :     0.904260
      pz      :     0.022607  p :     0.063614
      px      :     0.022342
      py      :     0.018665
 14 H s       :     0.911712  s :     0.911712
      pz      :     0.015328  p :     0.073333
      px      :     0.016553
      py      :     0.041452
 15 H s       :     0.907192  s :     0.907192
      pz      :     0.016343  p :     0.068952
      px      :     0.037150
      py      :     0.015458
 16 S s       :     5.526743  s :     5.526743
      pz      :     3.494894  p :     9.955442
      px      :     3.337657
      py      :     3.122891
      dz2     :     0.020077  d :     0.125247
      dxz     :     0.023545
      dyz     :     0.017256
      dx2y2   :     0.034076
      dxy     :     0.030292
 17 C s       :     2.947776  s :     2.947776
      pz      :     1.052403  p :     3.162085
      px      :     1.029763
      py      :     1.079919
      dz2     :     0.007059  d :     0.077096
      dxz     :     0.015586
      dyz     :     0.010573
      dx2y2   :     0.023204
      dxy     :     0.020674
 18 C s       :     2.871152  s :     2.871152
      pz      :     1.020727  p :     3.107464
      px      :     1.057589
      py      :     1.029148
      dz2     :     0.009064  d :     0.082768
      dxz     :     0.013011
      dyz     :     0.014204
      dx2y2   :     0.020479
      dxy     :     0.026011
 19 C s       :     2.870614  s :     2.870614
      pz      :     0.993548  p :     3.071614
      px      :     1.052752
      py      :     1.025314
      dz2     :     0.013329  d :     0.102716
      dxz     :     0.017540
      dyz     :     0.014896
      dx2y2   :     0.030464
      dxy     :     0.026487
 20 C s       :     2.904938  s :     2.904938
      pz      :     1.094085  p :     3.182539
      px      :     1.082742
      py      :     1.005713
      dz2     :     0.010614  d :     0.104034
      dxz     :     0.021452
      dyz     :     0.012093
      dx2y2   :     0.030904
      dxy     :     0.028972
 21 H s       :     0.899825  s :     0.899825
      pz      :     0.026300  p :     0.082656
      px      :     0.039197
      py      :     0.017158
 22 C s       :     2.844436  s :     2.844436
      pz      :     1.056673  p :     3.110324
      px      :     1.035519
      py      :     1.018132
      dz2     :     0.022227  d :     0.085601
      dxz     :     0.004481
      dyz     :     0.016973
      dx2y2   :     0.021178
      dxy     :     0.020742
 23 H s       :     0.901096  s :     0.901096
      pz      :     0.037083  p :     0.063772
      px      :     0.012227
      py      :     0.014462
 24 H s       :     0.908442  s :     0.908442
      pz      :     0.011716  p :     0.060182
      px      :     0.036014
      py      :     0.012453
 25 C s       :     2.817140  s :     2.817140
      pz      :     1.028829  p :     3.126902
      px      :     1.072969
      py      :     1.025104
      dz2     :     0.023375  d :     0.094027
      dxz     :     0.012158
      dyz     :     0.025978
      dx2y2   :     0.020771
      dxy     :     0.011745
 26 H s       :     0.904653  s :     0.904653
      pz      :     0.013274  p :     0.067273
      px      :     0.039141
      py      :     0.014858
 27 H s       :     0.906278  s :     0.906278
      pz      :     0.022131  p :     0.073948
      px      :     0.021267
      py      :     0.030550
 28 C s       :     2.833372  s :     2.833372
      pz      :     1.032981  p :     3.164546
      px      :     1.059191
      py      :     1.072374
      dz2     :     0.017683  d :     0.073607
      dxz     :     0.011333
      dyz     :     0.019836
      dx2y2   :     0.017429
      dxy     :     0.007326
 29 H s       :     0.904689  s :     0.904689
      pz      :     0.018308  p :     0.061119
      px      :     0.018191
      py      :     0.024620
 30 H s       :     0.907382  s :     0.907382
      pz      :     0.021100  p :     0.070717
      px      :     0.015284
      py      :     0.034333
 31 H s       :     0.912315  s :     0.912315
      pz      :     0.012447  p :     0.063714
      px      :     0.037422
      py      :     0.013844
 32 H s       :     0.895980  s :     0.895980
      pz      :     0.014140  p :     0.079285
      px      :     0.040420
      py      :     0.024726
 33 H s       :     0.892730  s :     0.892730
      pz      :     0.024853  p :     0.072563
      px      :     0.013144
      py      :     0.034565


                      *****************************
                      * MAYER POPULATION ANALYSIS *
                      *****************************

  NA   - Mulliken gross atomic population
  ZA   - Total nuclear charge
  QA   - Mulliken gross atomic charge
  VA   - Mayer's total valence
  BVA  - Mayer's bonded valence
  FA   - Mayer's free valence

  ATOM       NA         ZA         QA         VA         BVA        FA
  0 S     15.8875    16.0000     0.1125     2.4955     2.4955     0.0000
  1 C      6.0893     6.0000    -0.0893     3.8350     3.8350     0.0000
  2 C      6.1083     6.0000    -0.1083     4.0346     4.0346    -0.0000
  3 C      5.9377     6.0000     0.0623     3.9047     3.9047    -0.0000
  4 C      6.1699     6.0000    -0.1699     3.8972     3.8972    -0.0000
  5 H      0.9971     1.0000     0.0029     1.0025     1.0025    -0.0000
  6 C      5.9359     6.0000     0.0641     3.9527     3.9527    -0.0000
  7 H      0.9860     1.0000     0.0140     0.9948     0.9948    -0.0000
  8 H      0.9960     1.0000     0.0040     0.9899     0.9899    -0.0000
  9 C      6.0430     6.0000    -0.0430     4.0537     4.0537     0.0000
 10 H      0.9644     1.0000     0.0356     0.9752     0.9752     0.0000
 11 H      0.9659     1.0000     0.0341     0.9803     0.9803     0.0000
 12 C      6.0482     6.0000    -0.0482     3.9974     3.9974    -0.0000
 13 H      0.9525     1.0000     0.0475     0.9855     0.9855    -0.0000
 14 H      0.9860     1.0000     0.0140     0.9943     0.9943     0.0000
 15 H      0.9831     1.0000     0.0169     0.9870     0.9870     0.0000
 16 S     15.8865    16.0000     0.1135     2.4647     2.4647     0.0000
 17 C      6.1039     6.0000    -0.1039     3.8598     3.8598    -0.0000
 18 C      6.0129     6.0000    -0.0129     3.9564     3.9564    -0.0000
 19 C      6.0084     6.0000    -0.0084     3.9829     3.9829    -0.0000
 20 C      6.1586     6.0000    -0.1586     3.9141     3.9141    -0.0000
 21 H      1.0091     1.0000    -0.0091     1.0029     1.0029     0.0000
 22 C      5.9871     6.0000     0.0129     3.9980     3.9980    -0.0000
 23 H      0.9701     1.0000     0.0299     0.9869     0.9869     0.0000
 24 H      0.9730     1.0000     0.0270     0.9841     0.9841    -0.0000
 25 C      6.0149     6.0000    -0.0149     4.0843     4.0843    -0.0000
 26 H      0.9746     1.0000     0.0254     0.9865     0.9865    -0.0000
 27 H      0.9843     1.0000     0.0157     0.9815     0.9815    -0.0000
 28 C      6.0615     6.0000    -0.0615     3.9927     3.9927     0.0000
 29 H      0.9529     1.0000     0.0471     0.9922     0.9922    -0.0000
 30 H      0.9758     1.0000     0.0242     0.9869     0.9869     0.0000
 31 H      0.9754     1.0000     0.0246     0.9879     0.9879     0.0000
 32 H      0.9656     1.0000     0.0344     1.0072     1.0072     0.0000
 33 H      0.9347     1.0000     0.0653     0.9929     0.9929    -0.0000

  Mayer bond orders larger than 0.100000
B(  0-S ,  1-C ) :   1.1542 B(  0-S ,  4-C ) :   1.1346 B(  1-C ,  2-C ) :   1.6130 
B(  1-C , 32-H ) :   0.9724 B(  2-C ,  3-C ) :   1.2415 B(  2-C ,  6-C ) :   1.0162 
B(  3-C ,  4-C ) :   1.5781 B(  3-C ,  5-H ) :   0.9962 B(  4-C , 20-C ) :   1.0528 
B(  6-C ,  7-H ) :   0.9416 B(  6-C ,  8-H ) :   0.9253 B(  6-C ,  9-C ) :   1.0647 
B(  9-C , 10-H ) :   0.9606 B(  9-C , 11-H ) :   0.9560 B(  9-C , 12-C ) :   1.0606 
B( 12-C , 13-H ) :   0.9751 B( 12-C , 14-H ) :   0.9774 B( 12-C , 15-H ) :   0.9750 
B( 16-S , 17-C ) :   1.1562 B( 16-S , 20-C ) :   1.1188 B( 17-C , 18-C ) :   1.6349 
B( 17-C , 33-H ) :   0.9611 B( 18-C , 19-C ) :   1.1910 B( 18-C , 21-H ) :   1.0047 
B( 19-C , 20-C ) :   1.6229 B( 19-C , 22-C ) :   1.0506 B( 22-C , 23-H ) :   0.9302 
B( 22-C , 24-H ) :   0.9399 B( 22-C , 25-C ) :   1.0792 B( 25-C , 26-H ) :   0.9483 
B( 25-C , 27-H ) :   0.9506 B( 25-C , 28-C ) :   1.0816 B( 28-C , 29-H ) :   0.9736 
B( 28-C , 30-H ) :   0.9714 B( 28-C , 31-H ) :   0.9739 

-------
TIMINGS
-------

Total SCF time: 0 days 0 hours 0 min 19 sec 

Total time                  ....      19.393 sec
Sum of individual times     ....      18.529 sec  ( 95.5%)

Fock matrix formation       ....      16.870 sec  ( 87.0%)
  XC integration            ....       1.433 sec  (  8.5% of F)
    Basis function eval.    ....       0.142 sec  (  9.9% of XC)
    Density eval.           ....       0.102 sec  (  7.1% of XC)
    XC-Functional eval.     ....       0.115 sec  (  8.0% of XC)
    XC-Potential eval.      ....       0.111 sec  (  7.7% of XC)
Diagonalization             ....       0.134 sec  (  0.7%)
Density matrix formation    ....       0.025 sec  (  0.1%)
Population analysis         ....       0.055 sec  (  0.3%)
Initial guess               ....       0.163 sec  (  0.8%)
Orbital Transformation      ....       0.000 sec  (  0.0%)
Orbital Orthonormalization  ....       0.000 sec  (  0.0%)
DIIS solution               ....       0.155 sec  (  0.8%)
SOSCF solution              ....       0.129 sec  (  0.7%)
Grid generation             ....       0.996 sec  (  5.1%)


-------------------------------------------------------------------------------
                          DFT DISPERSION CORRECTION                            
                                                                               
                              DFTD3 V3.1  Rev 1                                
                              USING zero damping                               
-------------------------------------------------------------------------------
The omegaB97X-D3 functional is recognized. Fit by Chai et al.
Active option DFTDOPT                   ...         3   

molecular C6(AA) [au] = 14209.341043 


            DFT-D V3
 parameters
 s6 scaling factor         :     1.0000 
 rs6 scaling factor        :     1.2810 
 s8 scaling factor         :     1.0000 
 rs8 scaling factor        :     1.0940 
 Damping factor alpha6     :    14.0000 
 Damping factor alpha8     :    16.0000 
 ad hoc parameters k1-k3   :    16.0000     1.3333    -4.0000 

 Edisp/kcal,au: -8.845469248501  -0.014096151007 
 E6   /kcal   :  -4.042833042 
 E8   /kcal   :  -4.802636207 
 % E8         :  54.294872005 

-------------------------   ----------------
Dispersion correction           -0.014096151
-------------------------   ----------------


-------------------------   --------------------
FINAL SINGLE POINT ENERGY     -1339.866422961876
-------------------------   --------------------


                            ***************************************
                            *     ORCA property calculations      *
                            ***************************************

                                    ---------------------
                                    Active property flags
                                    ---------------------
   (+) Dipole Moment


------------------------------------------------------------------------------
                       ORCA ELECTRIC PROPERTIES CALCULATION
------------------------------------------------------------------------------

Dipole Moment Calculation                       ... on
Quadrupole Moment Calculation                   ... off
Polarizability Calculation                      ... off
GBWName                                         ... config_6645.gbw
Electron density file                           ... config_6645.scfp
The origin for moment calculation is the CENTER OF MASS  = (-107.075576, 26.210397 -187.320325)

-------------
DIPOLE MOMENT
-------------
                                X             Y             Z
Electronic contribution:      7.33709     -11.95721     -14.44731
Nuclear contribution   :     -7.56140      12.13515      14.87333
                        -----------------------------------------
Total Dipole Moment    :     -0.22431       0.17794       0.42602
                        -----------------------------------------
Magnitude (a.u.)       :      0.51329
Magnitude (Debye)      :      1.30468



--------------------
Rotational spectrum 
--------------------
 
Rotational constants in cm-1:     0.021314     0.007258     0.006610 
Rotational constants in MHz :   638.983407   217.585475   198.169866 

 Dipole components along the rotational axes: 
x,y,z [a.u.] :     0.230399     0.273158     0.368464 
x,y,z [Debye]:     0.585629     0.694311     0.936562 

 

Timings for individual modules:

Sum of individual times         ...       20.561 sec (=   0.343 min)
GTO integral calculation        ...        0.784 sec (=   0.013 min)   3.8 %
SCF iterations                  ...       19.777 sec (=   0.330 min)  96.2 %
                             ****ORCA TERMINATED NORMALLY****
TOTAL RUN TIME: 0 days 0 hours 0 minutes 21 seconds 261 msec
