
                                 *****************
                                 * O   R   C   A *
                                 *****************

           --- An Ab Initio, DFT and Semiempirical electronic structure package ---

                  #######################################################
                  #                        -***-                        #
                  #          Department of theory and spectroscopy      #
                  #               Directorship: Frank Neese             #
                  #        Max Planck Institute fuer Kohlenforschung    #
                  #                Kaiser Wilhelm Platz 1               #
                  #                 D-45470 Muelheim/Ruhr               #
                  #                      Germany                        #
                  #                                                     #
                  #                  All rights reserved                #
                  #                        -***-                        #
                  #######################################################


                         Program Version 4.2.1 -  RELEASE  -


 With contributions from (in alphabetic order):
   Daniel Aravena         : Magnetic Suceptibility
   Michael Atanasov       : Ab Initio Ligand Field Theory (pilot matlab implementation)
   Alexander A. Auer      : GIAO ZORA, VPT2
   Ute Becker             : Parallelization
   Giovanni Bistoni       : ED, misc. LED, open-shell LED, HFLD
   Martin Brehm           : Molecular dynamics
   Dmytro Bykov           : SCF Hessian
   Vijay G. Chilkuri      : MRCI spin determinant printing, contributions to CSF-ICE
   Dipayan Datta          : RHF DLPNO-CCSD density
   Achintya Kumar Dutta   : EOM-CC, STEOM-CC
   Dmitry Ganyushin       : Spin-Orbit,Spin-Spin,Magnetic field MRCI
   Miquel Garcia          : C-PCM Hessian, Gaussian charge scheme
   Yang Guo               : DLPNO-NEVPT2, CIM, IAO-localization
   Andreas Hansen         : Spin unrestricted coupled pair/coupled cluster methods
   Benjamin Helmich-Paris : CASSCF linear response (MC-RPA)
   Lee Huntington         : MR-EOM, pCC
   Robert Izsak           : Overlap fitted RIJCOSX, COSX-SCS-MP3, EOM
   Christian Kollmar      : KDIIS, OOCD, Brueckner-CCSD(T), CCSD density
   Simone Kossmann        : Meta GGA functionals, TD-DFT gradient, OOMP2, MP2 Hessian
   Martin Krupicka        : AUTO-CI
   Lucas Lang             : DCDCAS
   Dagmar Lenk            : GEPOL surface, SMD
   Dimitrios Liakos       : Extrapolation schemes; Compound Job, initial MDCI parallelization
   Dimitrios Manganas     : Further ROCIS development; embedding schemes
   Dimitrios Pantazis     : SARC Basis sets
   Taras Petrenko         : DFT Hessian,TD-DFT gradient, ASA, ECA, R-Raman, ABS, FL, XAS/XES, NRVS
   Peter Pinski           : DLPNO-MP2, DLPNO-MP2 Gradient
   Christoph Reimann      : Effective Core Potentials
   Marius Retegan         : Local ZFS, SOC
   Christoph Riplinger    : Optimizer, TS searches, QM/MM, DLPNO-CCSD(T), (RO)-DLPNO pert. Triples
   Tobias Risthaus        : Range-separated hybrids, TD-DFT gradient, RPA, STAB
   Michael Roemelt        : Original ROCIS implementation
   Masaaki Saitow         : Open-shell DLPNO-CCSD energy and density
   Barbara Sandhoefer     : DKH picture change effects
   Avijit Sen             : IP-ROCIS
   Kantharuban Sivalingam : CASSCF convergence, NEVPT2, FIC-MRCI
   Bernardo de Souza      : ESD, SOC TD-DFT
   Georgi Stoychev        : AutoAux, RI-MP2 NMR
   Willem Van den Heuvel  : Paramagnetic NMR
   Boris Wezisla          : Elementary symmetry handling
   Frank Wennmohs         : Technical directorship


 We gratefully acknowledge several colleagues who have allowed us to
 interface, adapt or use parts of their codes:
   Stefan Grimme, W. Hujo, H. Kruse,             : VdW corrections, initial TS optimization,
                  C. Bannwarth                     DFT functionals, gCP, sTDA/sTD-DF
   Ed Valeev, F. Pavosevic, A. Kumar             : LibInt (2-el integral package), F12 methods
   Garnet Chan, S. Sharma, J. Yang, R. Olivares  : DMRG
   Ulf Ekstrom                                   : XCFun DFT Library
   Mihaly Kallay                                 : mrcc  (arbitrary order and MRCC methods)
   Andreas Klamt, Michael Diedenhofen            : otool_cosmo (COSMO solvation model)
   Jiri Pittner, Ondrej Demel                    : Mk-CCSD
   Frank Weinhold                                : gennbo (NPA and NBO analysis)
   Christopher J. Cramer and Donald G. Truhlar   : smd solvation model
   Lars Goerigk                                  : TD-DFT with DH, B97 family of functionals
   V. Asgeirsson, H. Jonsson                     : NEB implementation
   FAccTs GmbH                                   : IRC, NEB, NEB-TS, Multilevel, MM, QM/MM, CI optimization
   S Lehtola, MJT Oliveira, MAL Marques          : LibXC Library


 Your calculation uses the libint2 library for the computation of 2-el integrals
 For citations please refer to: http://libint.valeyev.net

 Your ORCA version has been built with support for libXC version: 4.2.3
 For citations please refer to: https://tddft.org/programs/libxc/

 This ORCA versions uses:
   CBLAS   interface :  Fast vector & matrix operations
   LAPACKE interface :  Fast linear algebra routines
   SCALAPACK package :  Parallel linear algebra routines


Your calculation utilizes the atom-pairwise dispersion correction
with the zero-damping scheme (D30)
Cite in your paper:
S.Grimme, J.Antony, S.Ehrlich and H.Krieg, J.Chem.Phys., 132, (2010), 154104 
   

XCFun DFT library Copyright 2009-2010 Ulf Ekstrom and contributors.
See http://admol.org/xcfun for more information. This is free soft-
ware; see the source code for copying conditions. There is ABSOLUTELY
NO WARRANTY; not even for MERCHANTABILITY or FITNESS FOR A PARTICULAR
PURPOSE. For details see the documentation. Scientific users of this 
library should cite U. Ekstrom, L. Visscher, R. Bast, A. J. Thorvald-
sen and K. Ruud; J.Chem.Theor.Comp. 2010, DOI: 10.1021/ct100117s
XCFun Version 0.99 
----- Orbital basis set information -----
Your calculation utilizes the basis: def2-SVP
   F. Weigend and R. Ahlrichs, Phys. Chem. Chem. Phys. 7, 3297 (2005).

================================================================================
                                        WARNINGS
                       Please study these warnings very carefully!
================================================================================


INFO   : the flag for use of LIBINT has been found!

================================================================================
                                       INPUT FILE
================================================================================
NAME = config_6170.inp
|  1> ! wB97X-D3 SP def2-SVP
|  2> %pal
|  3> nprocs 24
|  4> end
|  5> 
|  6> * xyz 0 1
|  7> S 	 -88.9975 	 -7.7951 	 -119.054 	 
|  8> C 	 -87.982 	 -9.12861 	 -119.54 	 
|  9> C 	 -88.6161 	 -10.1742 	 -120.211 	 
| 10> C 	 -89.9869 	 -9.88876 	 -120.345 	 
| 11> C 	 -90.3746 	 -8.75552 	 -119.687 	 
| 12> H 	 -90.7036 	 -10.539 	 -120.801 	 
| 13> C 	 -87.952 	 -11.4775 	 -120.797 	 
| 14> H 	 -86.8433 	 -11.4244 	 -120.646 	 
| 15> H 	 -88.1073 	 -11.5272 	 -121.897 	 
| 16> C 	 -88.297 	 -12.7736 	 -120.092 	 
| 17> H 	 -88.281 	 -12.5133 	 -119.035 	 
| 18> H 	 -89.3624 	 -13.0295 	 -120.325 	 
| 19> C 	 -87.4757 	 -14.0548 	 -120.344 	 
| 20> H 	 -86.4727 	 -13.9991 	 -119.986 	 
| 21> H 	 -88.0506 	 -14.8261 	 -119.814 	 
| 22> H 	 -87.4375 	 -14.3102 	 -121.405 	 
| 23> S 	 -91.8149 	 -6.51356 	 -120.09 	 
| 24> C 	 -93.4937 	 -6.44368 	 -119.595 	 
| 25> C 	 -93.8236 	 -7.6506 	 -118.903 	 
| 26> C 	 -92.8472 	 -8.68009 	 -118.956 	 
| 27> C 	 -91.7148 	 -8.21638 	 -119.583 	 
| 28> H 	 -94.8356 	 -7.71349 	 -118.402 	 
| 29> C 	 -93.0084 	 -10.0215 	 -118.314 	 
| 30> H 	 -93.0265 	 -9.91287 	 -117.28 	 
| 31> H 	 -92.1882 	 -10.7394 	 -118.452 	 
| 32> C 	 -94.3705 	 -10.5763 	 -118.545 	 
| 33> H 	 -94.759 	 -10.3416 	 -119.506 	 
| 34> H 	 -94.9896 	 -10.097 	 -117.806 	 
| 35> C 	 -94.2366 	 -12.0419 	 -118.254 	 
| 36> H 	 -93.2727 	 -12.4781 	 -118.579 	 
| 37> H 	 -94.9143 	 -12.6621 	 -118.859 	 
| 38> H 	 -94.3914 	 -12.3089 	 -117.172 	 
| 39> H 	 -86.947 	 -9.33277 	 -119.296 	 
| 40> H 	 -94.1266 	 -5.5571 	 -119.531 	 
| 41> *
| 42> 
| 43>                          ****END OF INPUT****
================================================================================

                       ****************************
                       * Single Point Calculation *
                       ****************************

---------------------------------
CARTESIAN COORDINATES (ANGSTROEM)
---------------------------------
  S    -88.997500   -7.795100  -119.054000
  C    -87.982000   -9.128610  -119.540000
  C    -88.616100  -10.174200  -120.211000
  C    -89.986900   -9.888760  -120.345000
  C    -90.374600   -8.755520  -119.687000
  H    -90.703600  -10.539000  -120.801000
  C    -87.952000  -11.477500  -120.797000
  H    -86.843300  -11.424400  -120.646000
  H    -88.107300  -11.527200  -121.897000
  C    -88.297000  -12.773600  -120.092000
  H    -88.281000  -12.513300  -119.035000
  H    -89.362400  -13.029500  -120.325000
  C    -87.475700  -14.054800  -120.344000
  H    -86.472700  -13.999100  -119.986000
  H    -88.050600  -14.826100  -119.814000
  H    -87.437500  -14.310200  -121.405000
  S    -91.814900   -6.513560  -120.090000
  C    -93.493700   -6.443680  -119.595000
  C    -93.823600   -7.650600  -118.903000
  C    -92.847200   -8.680090  -118.956000
  C    -91.714800   -8.216380  -119.583000
  H    -94.835600   -7.713490  -118.402000
  C    -93.008400  -10.021500  -118.314000
  H    -93.026500   -9.912870  -117.280000
  H    -92.188200  -10.739400  -118.452000
  C    -94.370500  -10.576300  -118.545000
  H    -94.759000  -10.341600  -119.506000
  H    -94.989600  -10.097000  -117.806000
  C    -94.236600  -12.041900  -118.254000
  H    -93.272700  -12.478100  -118.579000
  H    -94.914300  -12.662100  -118.859000
  H    -94.391400  -12.308900  -117.172000
  H    -86.947000   -9.332770  -119.296000
  H    -94.126600   -5.557100  -119.531000

----------------------------
CARTESIAN COORDINATES (A.U.)
----------------------------
  NO LB      ZA    FRAG     MASS         X           Y           Z
   0 S    16.0000    0    32.060  -168.180902  -14.730604  -224.979455
   1 C     6.0000    0    12.011  -166.261885  -17.250573  -225.897862
   2 C     6.0000    0    12.011  -167.460160  -19.226452  -227.165868
   3 C     6.0000    0    12.011  -170.050597  -18.687048  -227.419092
   4 C     6.0000    0    12.011  -170.783243  -16.545535  -226.175652
   5 H     1.0000    0     1.008  -171.404963  -19.915824  -228.280807
   6 C     6.0000    0    12.011  -166.205193  -21.689332  -228.273248
   7 H     1.0000    0     1.008  -164.110054  -21.588987  -227.987899
   8 H     1.0000    0     1.008  -166.498667  -21.783251  -230.351947
   9 C     6.0000    0    12.011  -166.857148  -24.138606  -226.940991
  10 H     1.0000    0     1.008  -166.826913  -23.646710  -224.943550
  11 H     1.0000    0     1.008  -168.870463  -24.622187  -227.381297
  12 C     6.0000    0    12.011  -165.305116  -26.559723  -227.417202
  13 H     1.0000    0     1.008  -163.409721  -26.454465  -226.740680
  14 H     1.0000    0     1.008  -166.391520  -28.017269  -226.415647
  15 H     1.0000    0     1.008  -165.232929  -27.042359  -229.422201
  16 S    16.0000    0    32.060  -173.505016  -12.308845  -226.937211
  17 C     6.0000    0    12.011  -176.677488  -12.176790  -226.001797
  18 C     6.0000    0    12.011  -177.300909  -14.457539  -224.694107
  19 C     6.0000    0    12.011  -175.455780  -16.402993  -224.794262
  20 C     6.0000    0    12.011  -173.315854  -15.526708  -225.979120
  21 H     1.0000    0     1.008  -179.213312  -14.576384  -223.747354
  22 C     6.0000    0    12.011  -175.760404  -18.937890  -223.581058
  23 H     1.0000    0     1.008  -175.794608  -18.732610  -221.627081
  24 H     1.0000    0     1.008  -174.210451  -20.294525  -223.841840
  25 C     6.0000    0    12.011  -178.334400  -19.986311  -224.017585
  26 H     1.0000    0     1.008  -179.068559  -19.542792  -225.833611
  27 H     1.0000    0     1.008  -179.504330  -19.080565  -222.621077
  28 C     6.0000    0    12.011  -178.081366  -22.755893  -223.467674
  29 H     1.0000    0     1.008  -176.259859  -23.580192  -224.081835
  30 H     1.0000    0     1.008  -179.362033  -23.927901  -224.610959
  31 H     1.0000    0     1.008  -178.373895  -23.260450  -221.422991
  32 H     1.0000    0     1.008  -164.306018  -17.636379  -225.436769
  33 H     1.0000    0     1.008  -177.873496  -10.501397  -225.880855

--------------------------------
INTERNAL COORDINATES (ANGSTROEM)
--------------------------------
 S      0   0   0     0.000000000000     0.00000000     0.00000000
 C      1   0   0     1.745189150236     0.00000000     0.00000000
 C      2   1   0     1.394841302120   116.24568721     0.00000000
 C      3   2   1     1.406600381629   109.67858204     0.15973565
 C      4   3   2     1.366568032555   113.50902631   353.93226891
 H      4   3   2     1.069769576872   124.76185971   181.56753117
 C      3   2   1     1.575758769609   127.39494627   178.22270060
 H      7   3   2     1.120194759852   109.13454521   356.77359754
 H      7   3   2     1.112019864930   110.24118250   240.88055173
 C      7   3   2     1.515231074787   116.00776257   110.88894228
 H     10   7   3     1.088696968858   104.11490352   319.17510017
 H     10   7   3     1.120201307801   108.37149766    71.35109078
 C     10   7   3     1.542566410240   120.87806139   194.41801559
 H     13  10   7     1.066431193280   113.73669268    66.82286294
 H     13  10   7     1.098323130959   103.04664907   187.71483915
 H     13  10   7     1.091974999714   111.81523471   304.44632943
 S      5   4   3     2.695043178059   140.30587929   132.66880250
 C     17   5   4     1.751649980561   120.20724865    95.60533258
 C     18  17   5     1.429809041935   108.91879627     5.01605623
 C     19  18  17     1.419864648514   115.80450429   350.38323144
 C     20  19  18     1.374949353285   109.80696126     5.64450360
 H     19  18  17     1.130973099636   117.89102505   172.47023839
 C     20  19  18     1.495837634271   124.06132664   180.84617741
 H     23  20  19     1.039848107610   109.57076439   293.59513499
 H     23  20  19     1.098704896685   116.84593788   178.43456413
 C     23  20  19     1.488784890439   111.48041573    43.60036164
 H     26  23  20     1.062796942035   113.10667984    36.22722851
 H     26  23  20     1.076630995281   104.69667317   278.66206231
 C     26  23  20     1.500197843619   104.61375517   162.19820692
 H     29  26  23     1.106796571191   113.94089135   323.04626045
 H     29  26  23     1.099977422496   112.90151023   211.38586623
 H     29  26  23     1.125156006961   113.95897394    87.57858934
 H      2   1   3     1.082793750259   129.60710702   188.43818403
 H     18  17   5     1.091183992918   127.22004844   167.84954839

---------------------------
INTERNAL COORDINATES (A.U.)
---------------------------
 S      0   0   0     0.000000000000     0.00000000     0.00000000
 C      1   0   0     3.297929545836     0.00000000     0.00000000
 C      2   1   0     2.635868061289   116.24568721     0.00000000
 C      3   2   1     2.658089501149   109.67858204     0.15973565
 C      4   3   2     2.582439324900   113.50902631   353.93226891
 H      4   3   2     2.021571526688   124.76185971   181.56753117
 C      3   2   1     2.977752527686   127.39494627   178.22270060
 H      7   3   2     2.116861312774   109.13454521   356.77359754
 H      7   3   2     2.101413000199   110.24118250   240.88055173
 C      7   3   2     2.863371760954   116.00776257   110.88894228
 H     10   7   3     2.057339113971   104.11490352   319.17510017
 H     10   7   3     2.116873686605   108.37149766    71.35109078
 C     10   7   3     2.915028058739   120.87806139   194.41801559
 H     13  10   7     2.015262895969   113.73669268    66.82286294
 H     13  10   7     2.075529924064   103.04664907   187.71483915
 H     13  10   7     2.063533694548   111.81523471   304.44632943
 S      5   4   3     5.092893525623   140.30587929   132.66880250
 C     17   5   4     3.310138745749   120.20724865    95.60533258
 C     18  17   5     2.701947513062   108.91879627     5.01605623
 C     19  18  17     2.683155332928   115.80450429   350.38323144
 C     20  19  18     2.598277725722   109.80696126     5.64450360
 H     19  18  17     2.137229423144   117.89102505   172.47023839
 C     20  19  18     2.826723469584   124.06132664   180.84617741
 H     23  20  19     1.965028144259   109.57076439   293.59513499
 H     23  20  19     2.076251356733   116.84593788   178.43456413
 C     23  20  19     2.813395715250   111.48041573    43.60036164
 H     26  23  20     2.008395156416   113.10667984    36.22722851
 H     26  23  20     2.034537728372   104.69667317   278.66206231
 C     26  23  20     2.834963071140   104.61375517   162.19820692
 H     29  26  23     2.091542405514   113.94089135   323.04626045
 H     29  26  23     2.078656082013   112.90151023   211.38586623
 H     29  26  23     2.126236711092   113.95897394    87.57858934
 H      2   1   3     2.046183647511   129.60710702   188.43818403
 H     18  17   5     2.062038908333   127.22004844   167.84954839

---------------------
BASIS SET INFORMATION
---------------------
There are 3 groups of distinct atoms

 Group   1 Type S   : 10s7p1d contracted to 4s3p1d pattern {5311/511/1}
 Group   2 Type C   : 7s4p1d contracted to 3s2p1d pattern {511/31/1}
 Group   3 Type H   : 4s1p contracted to 2s1p pattern {31/1}

Atom   0S    basis set group =>   1
Atom   1C    basis set group =>   2
Atom   2C    basis set group =>   2
Atom   3C    basis set group =>   2
Atom   4C    basis set group =>   2
Atom   5H    basis set group =>   3
Atom   6C    basis set group =>   2
Atom   7H    basis set group =>   3
Atom   8H    basis set group =>   3
Atom   9C    basis set group =>   2
Atom  10H    basis set group =>   3
Atom  11H    basis set group =>   3
Atom  12C    basis set group =>   2
Atom  13H    basis set group =>   3
Atom  14H    basis set group =>   3
Atom  15H    basis set group =>   3
Atom  16S    basis set group =>   1
Atom  17C    basis set group =>   2
Atom  18C    basis set group =>   2
Atom  19C    basis set group =>   2
Atom  20C    basis set group =>   2
Atom  21H    basis set group =>   3
Atom  22C    basis set group =>   2
Atom  23H    basis set group =>   3
Atom  24H    basis set group =>   3
Atom  25C    basis set group =>   2
Atom  26H    basis set group =>   3
Atom  27H    basis set group =>   3
Atom  28C    basis set group =>   2
Atom  29H    basis set group =>   3
Atom  30H    basis set group =>   3
Atom  31H    basis set group =>   3
Atom  32H    basis set group =>   3
Atom  33H    basis set group =>   3


           ************************************************************
           *        Program running with 24 parallel MPI-processes    *
           *              working on a common directory               *
           ************************************************************
------------------------------------------------------------------------------
                           ORCA GTO INTEGRAL CALCULATION
------------------------------------------------------------------------------

                         BASIS SET STATISTICS AND STARTUP INFO

 # of primitive gaussian shells          ...  294
 # of primitive gaussian functions       ...  534
 # of contracted shells                  ...  154
 # of contracted basis functions         ...  322
 Highest angular momentum                ...    2
 Maximum contraction depth               ...    5
 Integral package used                   ... LIBINT
 Integral threshhold            Thresh   ...  1.000e-10
 Primitive cut-off              TCut     ...  1.000e-11


------------------------------ INTEGRAL EVALUATION ----------------------------


 * One electron integrals 
 Pre-screening matrix                    ... done
 Shell pair data                         ... done (   0.003 sec)



           ************************************************************
           *        Program running with 24 parallel MPI-processes    *
           *              working on a common directory               *
           ************************************************************
-------------------------------------------------------------------------------
                                 ORCA SCF
-------------------------------------------------------------------------------

------------
SCF SETTINGS
------------
Hamiltonian:
 Density Functional     Method          .... DFT(GTOs)
 Exchange Functional    Exchange        .... WB97X-D3
 Correlation Functional Correlation     .... WB97X-D3
 Gradients option       PostSCFGGA      .... off
 Hybrid DFT is turned on
   Fraction HF Exchange ScalHFX         ....  0.195728
   Scaling of DF-GGA-X  ScalDFX         ....  0.000000
   Scaling of DF-GGA-C  ScalDFC         ....  1.000000
   Scaling of DF-LDA-C  ScalLDAC        ....  1.000000
   Perturbative correction              ....  0.000000
   Density functional embedding theory  .... OFF
 Long-range corrected/Screened/Range-Separated Hybrid DFT is turned on
   Amount of maximum screened exact exchange              ....  0.804272
   Range separation parameter mu (erf(mu*r12)/r12)        ....  0.250000


General Settings:
 Integral files         IntName         .... config_6170
 Hartree-Fock type      HFTyp           .... RHF
 Total Charge           Charge          ....    0
 Multiplicity           Mult            ....    1
 Number of Electrons    NEL             ....  134
 Basis Dimension        Dim             ....  322
 Nuclear Repulsion      ENuc            ....   1272.1674134210 Eh

Convergence Acceleration:
 DIIS                   CNVDIIS         .... on
   Start iteration      DIISMaxIt       ....    12
   Startup error        DIISStart       ....  0.200000
   # of expansion vecs  DIISMaxEq       ....     5
   Bias factor          DIISBfac        ....   1.050
   Max. coefficient     DIISMaxC        ....  10.000
 Newton-Raphson         CNVNR           .... off
 SOSCF                  CNVSOSCF        .... on
   Start iteration      SOSCFMaxIt      ....   150
   Startup grad/error   SOSCFStart      ....  0.003300
 Level Shifting         CNVShift        .... on
   Level shift para.    LevelShift      ....    0.2500
   Turn off err/grad.   ShiftErr        ....    0.0010
 Zerner damping         CNVZerner       .... off
 Static damping         CNVDamp         .... on
   Fraction old density DampFac         ....    0.7000
   Max. Damping (<1)    DampMax         ....    0.9800
   Min. Damping (>=0)   DampMin         ....    0.0000
   Turn off err/grad.   DampErr         ....    0.1000
 Fernandez-Rico         CNVRico         .... off

SCF Procedure:
 Maximum # iterations   MaxIter         ....   125
 SCF integral mode      SCFMode         .... Direct
   Integral package                     .... LIBINT
 Reset frequency        DirectResetFreq ....    20
 Integral Threshold     Thresh          ....  1.000e-10 Eh
 Primitive CutOff       TCut            ....  1.000e-11 Eh

Convergence Tolerance:
 Convergence Check Mode ConvCheckMode   .... Total+1el-Energy
 Convergence forced     ConvForced      .... 0
 Energy Change          TolE            ....  1.000e-06 Eh
 1-El. energy change                    ....  1.000e-03 Eh
 Orbital Gradient       TolG            ....  5.000e-05
 Orbital Rotation angle TolX            ....  5.000e-05
 DIIS Error             TolErr          ....  1.000e-06


Diagonalization of the overlap matrix:
Smallest eigenvalue                        ... 6.524e-04
Time for diagonalization                   ...    0.015 sec
Threshold for overlap eigenvalues          ... 1.000e-08
Number of eigenvalues below threshold      ... 0
Time for construction of square roots      ...    0.027 sec
Total time needed                          ...    0.042 sec

-------------------
DFT GRID GENERATION
-------------------

General Integration Accuracy     IntAcc      ...  4.340
Radial Grid Type                 RadialGrid  ... Gauss-Chebyshev
Angular Grid (max. acc.)         AngularGrid ... Lebedev-110
Angular grid pruning method      GridPruning ... 3 (G Style)
Weight generation scheme         WeightScheme... Becke
Basis function cutoff            BFCut       ...    1.0000e-10
Integration weight cutoff        WCut        ...    1.0000e-14
Grids for H and He will be reduced by one unit

# of grid points (after initial pruning)     ...  41088 (   0.0 sec)
# of grid points (after weights+screening)   ...  37028 (   0.0 sec)
nearest neighbour list constructed           ...    0.0 sec
Grid point re-assignment to atoms done       ...    0.0 sec
Grid point division into batches done        ...    0.0 sec
Reduced shell lists constructed in    0.1 sec

Total number of grid points                  ...    37028
Total number of batches                      ...      594
Average number of points per batch           ...       62
Average number of grid points per atom       ...     1089
Average number of shells per batch           ...    68.35 (44.38%)
Average number of basis functions per batch  ...   135.88 (42.20%)
Average number of large shells per batch     ...    42.88 (62.75%)
Average number of large basis fcns per batch ...    89.73 (66.03%)
Maximum spatial batch extension              ...  14.80, 15.86, 16.42 au
Average spatial batch extension              ...   0.17,  0.18,  0.21 au

Time for grid setup =    0.147 sec

------------------------------
INITIAL GUESS: MODEL POTENTIAL
------------------------------
Loading Hartree-Fock densities                     ... done
Calculating cut-offs                               ... done
Setting up the integral package                    ... done
Initializing the effective Hamiltonian             ... done
Starting the Coulomb interaction                   ... done (   0.0 sec)
Reading the grid                                   ... done
Mapping shells                                     ... done
Starting the XC term evaluation                    ... done (   0.0 sec)
  promolecular density results
     # of electrons  =    133.981430116
     EX              =   -126.720626312
     EC              =     -4.620649183
     EX+EC           =   -131.341275495
Transforming the Hamiltonian                       ... done (   0.0 sec)
Diagonalizing the Hamiltonian                      ... done (   0.0 sec)
Back transforming the eigenvectors                 ... done (   0.0 sec)
Now organizing SCF variables                       ... done
                      ------------------
                      INITIAL GUESS DONE (   0.3 sec)
                      ------------------
--------------
SCF ITERATIONS
--------------
ITER       Energy         Delta-E        Max-DP      RMS-DP      [F,P]     Damp
               ***  Starting incremental Fock matrix formation  ***
  0  -1339.3914641012   0.000000000000 0.06459939  0.00162914  0.1627115 0.7000
  1  -1339.5872341725  -0.195770071290 0.04365404  0.00117766  0.0978837 0.7000
                               ***Turning on DIIS***
  2  -1339.6809637718  -0.093729599387 0.09120512  0.00219720  0.0514101 0.0000
  3  -1339.8211538836  -0.140190111793 0.04564331  0.00103406  0.0421321 0.0000
  4  -1339.8526217539  -0.031467870227 0.00833741  0.00021221  0.0080812 0.0000
                      *** Initiating the SOSCF procedure ***
                           *** Shutting down DIIS ***
                      *** Re-Reading the Fockian *** 
                      *** Removing any level shift *** 
ITER      Energy       Delta-E        Grad      Rot      Max-DP    RMS-DP
  5  -1339.85362584  -0.0010040832  0.001521  0.001521  0.003331  0.000109
               *** Restarting incremental Fock matrix formation ***
  6  -1339.85383573  -0.0002098938  0.001497  0.004170  0.002481  0.000066
  7  -1339.85390780  -0.0000720737  0.000793  0.004930  0.003277  0.000064
  8  -1339.85392795  -0.0000201423  0.000219  0.000403  0.000726  0.000017
  9  -1339.85393181  -0.0000038651  0.000048  0.000222  0.000154  0.000005
 10  -1339.85393196  -0.0000001436  0.000054  0.000122  0.000080  0.000002
                 **** Energy Check signals convergence ****
              ***Rediagonalizing the Fockian in SOSCF/NRSCF***

               *****************************************************
               *                     SUCCESS                       *
               *           SCF CONVERGED AFTER  11 CYCLES          *
               *****************************************************

Setting up the final grid:

General Integration Accuracy     IntAcc      ...  4.670
Radial Grid Type                 RadialGrid  ... Gauss-Chebyshev
Angular Grid (max. acc.)         AngularGrid ... Lebedev-302
Angular grid pruning method      GridPruning ... 3 (G Style)
Weight generation scheme         WeightScheme... Becke
Basis function cutoff            BFCut       ...    1.0000e-10
Integration weight cutoff        WCut        ...    1.0000e-14
Grids for H and He will be reduced by one unit

# of grid points (after initial pruning)     ... 161752 (   0.0 sec)
# of grid points (after weights+screening)   ... 143013 (   0.1 sec)
nearest neighbour list constructed           ...    0.0 sec
Grid point re-assignment to atoms done       ...    0.0 sec
Grid point division into batches done        ...    0.5 sec
Reduced shell lists constructed in    0.5 sec

Total number of grid points                  ...   143013
Total number of batches                      ...     2252
Average number of points per batch           ...       63
Average number of grid points per atom       ...     4206
Average number of shells per batch           ...    61.62 (40.01%)
Average number of basis functions per batch  ...   122.36 (38.00%)
Average number of large shells per batch     ...    37.62 (61.05%)
Average number of large basis fcns per batch ...    78.48 (64.14%)
Maximum spatial batch extension              ...  13.12, 13.88, 16.57 au
Average spatial batch extension              ...   0.12,  0.12,  0.13 au

Final grid set up in    0.8 sec
Final integration                            ... done (   0.2 sec)
Change in XC energy                          ...     0.007097088
Integrated number of electrons               ...   134.000148921
Previous integrated no of electrons          ...   133.996784584

----------------
TOTAL SCF ENERGY
----------------

Total Energy       :        -1339.84683497 Eh          -36459.08592 eV

Components:
Nuclear Repulsion  :         1272.16741342 Eh           34617.43524 eV
Electronic Energy  :        -2612.01424839 Eh          -71076.52116 eV
One Electron Energy:        -4360.91054358 Eh         -118666.40877 eV
Two Electron Energy:         1748.89629519 Eh           47589.88762 eV

Virial components:
Potential Energy   :        -2671.38848845 Eh          -72692.17637 eV
Kinetic Energy     :         1331.54165347 Eh           36233.09045 eV
Virial Ratio       :            2.00623727


DFT components:
N(Alpha)           :       67.000074460453 electrons
N(Beta)            :       67.000074460453 electrons
N(Total)           :      134.000148920906 electrons
E(XC)              :      -94.254624650271 Eh       
DFET-embed. en.    :        0.000000000000 Eh       

---------------
SCF CONVERGENCE
---------------

  Last Energy change         ...   -1.0558e-07  Tolerance :   1.0000e-06
  Last MAX-Density change    ...    3.4180e-05  Tolerance :   1.0000e-05
  Last RMS-Density change    ...    7.6154e-07  Tolerance :   1.0000e-06
  Last Orbital Gradient      ...    7.9952e-06  Tolerance :   5.0000e-05
  Last Orbital Rotation      ...    3.4966e-05  Tolerance :   5.0000e-05

             **** THE GBW FILE WAS UPDATED (config_6170.gbw) ****
             **** DENSITY FILE WAS UPDATED (config_6170.scfp) ****
             **** ENERGY FILE WAS UPDATED (config_6170.en.tmp) ****
             **** THE GBW FILE WAS UPDATED (config_6170.gbw) ****
             **** DENSITY FILE WAS UPDATED (config_6170.scfp) ****
----------------
ORBITAL ENERGIES
----------------

  NO   OCC          E(Eh)            E(eV) 
   0   2.0000     -88.972241     -2421.0578 
   1   2.0000     -88.965050     -2420.8621 
   2   2.0000     -10.326685      -281.0034 
   3   2.0000     -10.322285      -280.8837 
   4   2.0000     -10.321048      -280.8500 
   5   2.0000     -10.312485      -280.6170 
   6   2.0000     -10.302059      -280.3333 
   7   2.0000     -10.301912      -280.3293 
   8   2.0000     -10.301531      -280.3189 
   9   2.0000     -10.301312      -280.3130 
  10   2.0000     -10.288766      -279.9716 
  11   2.0000     -10.288691      -279.9695 
  12   2.0000     -10.281715      -279.7797 
  13   2.0000     -10.281602      -279.7766 
  14   2.0000     -10.280698      -279.7520 
  15   2.0000     -10.277415      -279.6627 
  16   2.0000      -8.086029      -220.0320 
  17   2.0000      -8.079205      -219.8463 
  18   2.0000      -6.044530      -164.4800 
  19   2.0000      -6.040955      -164.3827 
  20   2.0000      -6.037690      -164.2939 
  21   2.0000      -6.036556      -164.2630 
  22   2.0000      -6.033865      -164.1898 
  23   2.0000      -6.029950      -164.0833 
  24   2.0000      -1.004745       -27.3405 
  25   2.0000      -0.979842       -26.6629 
  26   2.0000      -0.928114       -25.2553 
  27   2.0000      -0.907120       -24.6840 
  28   2.0000      -0.864567       -23.5261 
  29   2.0000      -0.856128       -23.2964 
  30   2.0000      -0.848017       -23.0757 
  31   2.0000      -0.808492       -22.0002 
  32   2.0000      -0.782935       -21.3047 
  33   2.0000      -0.772378       -21.0175 
  34   2.0000      -0.708333       -19.2747 
  35   2.0000      -0.700052       -19.0494 
  36   2.0000      -0.690351       -18.7854 
  37   2.0000      -0.655356       -17.8331 
  38   2.0000      -0.637789       -17.3551 
  39   2.0000      -0.622053       -16.9269 
  40   2.0000      -0.604650       -16.4534 
  41   2.0000      -0.579361       -15.7652 
  42   2.0000      -0.569198       -15.4887 
  43   2.0000      -0.552193       -15.0259 
  44   2.0000      -0.524485       -14.2720 
  45   2.0000      -0.522747       -14.2247 
  46   2.0000      -0.516876       -14.0649 
  47   2.0000      -0.508460       -13.8359 
  48   2.0000      -0.501720       -13.6525 
  49   2.0000      -0.493859       -13.4386 
  50   2.0000      -0.487778       -13.2731 
  51   2.0000      -0.483139       -13.1469 
  52   2.0000      -0.471429       -12.8282 
  53   2.0000      -0.467265       -12.7149 
  54   2.0000      -0.461162       -12.5488 
  55   2.0000      -0.454539       -12.3686 
  56   2.0000      -0.447349       -12.1730 
  57   2.0000      -0.435619       -11.8538 
  58   2.0000      -0.431967       -11.7544 
  59   2.0000      -0.424228       -11.5438 
  60   2.0000      -0.420118       -11.4320 
  61   2.0000      -0.416568       -11.3354 
  62   2.0000      -0.413085       -11.2406 
  63   2.0000      -0.344964        -9.3869 
  64   2.0000      -0.334796        -9.1103 
  65   2.0000      -0.328693        -8.9442 
  66   2.0000      -0.286332        -7.7915 
  67   0.0000       0.030692         0.8352 
  68   0.0000       0.059433         1.6173 
  69   0.0000       0.106476         2.8974 
  70   0.0000       0.119279         3.2457 
  71   0.0000       0.132910         3.6167 
  72   0.0000       0.134738         3.6664 
  73   0.0000       0.141085         3.8391 
  74   0.0000       0.152155         4.1403 
  75   0.0000       0.159679         4.3451 
  76   0.0000       0.168584         4.5874 
  77   0.0000       0.176793         4.8108 
  78   0.0000       0.185543         5.0489 
  79   0.0000       0.185839         5.0569 
  80   0.0000       0.197870         5.3843 
  81   0.0000       0.207341         5.6420 
  82   0.0000       0.208119         5.6632 
  83   0.0000       0.213426         5.8076 
  84   0.0000       0.219616         5.9760 
  85   0.0000       0.229614         6.2481 
  86   0.0000       0.235254         6.4016 
  87   0.0000       0.240246         6.5374 
  88   0.0000       0.247690         6.7400 
  89   0.0000       0.248592         6.7645 
  90   0.0000       0.261636         7.1195 
  91   0.0000       0.268419         7.3040 
  92   0.0000       0.280518         7.6333 
  93   0.0000       0.296102         8.0574 
  94   0.0000       0.309702         8.4274 
  95   0.0000       0.324204         8.8220 
  96   0.0000       0.335823         9.1382 
  97   0.0000       0.345303         9.3962 
  98   0.0000       0.347111         9.4454 
  99   0.0000       0.365814         9.9543 
 100   0.0000       0.377272        10.2661 
 101   0.0000       0.386547        10.5185 
 102   0.0000       0.413661        11.2563 
 103   0.0000       0.417123        11.3505 
 104   0.0000       0.431246        11.7348 
 105   0.0000       0.450746        12.2654 
 106   0.0000       0.471411        12.8278 
 107   0.0000       0.483992        13.1701 
 108   0.0000       0.495244        13.4763 
 109   0.0000       0.505296        13.7498 
 110   0.0000       0.510590        13.8939 
 111   0.0000       0.517308        14.0767 
 112   0.0000       0.517841        14.0912 
 113   0.0000       0.520799        14.1717 
 114   0.0000       0.534299        14.5390 
 115   0.0000       0.545376        14.8404 
 116   0.0000       0.548277        14.9194 
 117   0.0000       0.556554        15.1446 
 118   0.0000       0.569449        15.4955 
 119   0.0000       0.572848        15.5880 
 120   0.0000       0.580855        15.8059 
 121   0.0000       0.587815        15.9953 
 122   0.0000       0.600249        16.3336 
 123   0.0000       0.616152        16.7663 
 124   0.0000       0.618564        16.8320 
 125   0.0000       0.622056        16.9270 
 126   0.0000       0.636345        17.3158 
 127   0.0000       0.643136        17.5006 
 128   0.0000       0.645713        17.5707 
 129   0.0000       0.654984        17.8230 
 130   0.0000       0.663510        18.0550 
 131   0.0000       0.673207        18.3189 
 132   0.0000       0.680539        18.5184 
 133   0.0000       0.688189        18.7266 
 134   0.0000       0.705543        19.1988 
 135   0.0000       0.708317        19.2743 
 136   0.0000       0.718947        19.5635 
 137   0.0000       0.721040        19.6205 
 138   0.0000       0.728857        19.8332 
 139   0.0000       0.737217        20.0607 
 140   0.0000       0.740821        20.1588 
 141   0.0000       0.749091        20.3838 
 142   0.0000       0.754987        20.5442 
 143   0.0000       0.756773        20.5929 
 144   0.0000       0.759041        20.6546 
 145   0.0000       0.762251        20.7419 
 146   0.0000       0.765644        20.8342 
 147   0.0000       0.770780        20.9740 
 148   0.0000       0.779692        21.2165 
 149   0.0000       0.783208        21.3122 
 150   0.0000       0.789589        21.4858 
 151   0.0000       0.791629        21.5413 
 152   0.0000       0.792522        21.5656 
 153   0.0000       0.798743        21.7349 
 154   0.0000       0.800434        21.7809 
 155   0.0000       0.801161        21.8007 
 156   0.0000       0.806290        21.9403 
 157   0.0000       0.812621        22.1125 
 158   0.0000       0.815396        22.1880 
 159   0.0000       0.820283        22.3210 
 160   0.0000       0.823435        22.4068 
 161   0.0000       0.827049        22.5051 
 162   0.0000       0.836012        22.7490 
 163   0.0000       0.847636        23.0653 
 164   0.0000       0.849635        23.1197 
 165   0.0000       0.858532        23.3618 
 166   0.0000       0.865751        23.5583 
 167   0.0000       0.876600        23.8535 
 168   0.0000       0.882624        24.0174 
 169   0.0000       0.891989        24.2723 
 170   0.0000       0.906619        24.6704 
 171   0.0000       0.921909        25.0864 
 172   0.0000       0.934117        25.4186 
 173   0.0000       0.943530        25.6747 
 174   0.0000       0.962877        26.2012 
 175   0.0000       0.969163        26.3723 
 176   0.0000       0.982264        26.7288 
 177   0.0000       0.987635        26.8749 
 178   0.0000       1.000694        27.2303 
 179   0.0000       1.021806        27.8048 
 180   0.0000       1.029606        28.0170 
 181   0.0000       1.069901        29.1135 
 182   0.0000       1.083553        29.4850 
 183   0.0000       1.099428        29.9170 
 184   0.0000       1.101789        29.9812 
 185   0.0000       1.114392        30.3241 
 186   0.0000       1.136702        30.9312 
 187   0.0000       1.167057        31.7572 
 188   0.0000       1.179645        32.0998 
 189   0.0000       1.190413        32.3928 
 190   0.0000       1.225261        33.3411 
 191   0.0000       1.241808        33.7913 
 192   0.0000       1.247234        33.9390 
 193   0.0000       1.266815        34.4718 
 194   0.0000       1.285767        34.9875 
 195   0.0000       1.296485        35.2791 
 196   0.0000       1.315012        35.7833 
 197   0.0000       1.324138        36.0316 
 198   0.0000       1.377326        37.4789 
 199   0.0000       1.394949        37.9585 
 200   0.0000       1.405719        38.2516 
 201   0.0000       1.417068        38.5604 
 202   0.0000       1.439496        39.1707 
 203   0.0000       1.445063        39.3222 
 204   0.0000       1.458332        39.6832 
 205   0.0000       1.463245        39.8169 
 206   0.0000       1.491159        40.5765 
 207   0.0000       1.509540        41.0767 
 208   0.0000       1.528730        41.5989 
 209   0.0000       1.557886        42.3922 
 210   0.0000       1.571386        42.7596 
 211   0.0000       1.604531        43.6615 
 212   0.0000       1.609915        43.8080 
 213   0.0000       1.633199        44.4416 
 214   0.0000       1.642815        44.7033 
 215   0.0000       1.653850        45.0035 
 216   0.0000       1.661525        45.2124 
 217   0.0000       1.677555        45.6486 
 218   0.0000       1.737259        47.2732 
 219   0.0000       1.772171        48.2232 
 220   0.0000       1.785551        48.5873 
 221   0.0000       1.799166        48.9578 
 222   0.0000       1.813591        49.3503 
 223   0.0000       1.819997        49.5246 
 224   0.0000       1.825229        49.6670 
 225   0.0000       1.835348        49.9424 
 226   0.0000       1.848349        50.2961 
 227   0.0000       1.852930        50.4208 
 228   0.0000       1.858662        50.5768 
 229   0.0000       1.863875        50.7186 
 230   0.0000       1.874952        51.0200 
 231   0.0000       1.881121        51.1879 
 232   0.0000       1.886093        51.3232 
 233   0.0000       1.895906        51.5902 
 234   0.0000       1.897696        51.6389 
 235   0.0000       1.904831        51.8331 
 236   0.0000       1.911396        52.0117 
 237   0.0000       1.918378        52.2017 
 238   0.0000       1.924976        52.3813 
 239   0.0000       1.932883        52.5964 
 240   0.0000       1.947938        53.0061 
 241   0.0000       1.957094        53.2552 
 242   0.0000       1.964054        53.4446 
 243   0.0000       1.984156        53.9916 
 244   0.0000       1.987751        54.0895 
 245   0.0000       1.988923        54.1213 
 246   0.0000       1.999467        54.4083 
 247   0.0000       2.010530        54.7093 
 248   0.0000       2.019760        54.9605 
 249   0.0000       2.035061        55.3768 
 250   0.0000       2.043021        55.5934 
 251   0.0000       2.051918        55.8355 
 252   0.0000       2.073243        56.4158 
 253   0.0000       2.076233        56.4972 
 254   0.0000       2.092161        56.9306 
 255   0.0000       2.097976        57.0888 
 256   0.0000       2.119416        57.6723 
 257   0.0000       2.131080        57.9896 
 258   0.0000       2.139940        58.2307 
 259   0.0000       2.165855        58.9359 
 260   0.0000       2.166253        58.9467 
 261   0.0000       2.189390        59.5763 
 262   0.0000       2.198526        59.8249 
 263   0.0000       2.213654        60.2366 
 264   0.0000       2.223688        60.5096 
 265   0.0000       2.235428        60.8291 
 266   0.0000       2.252829        61.3026 
 267   0.0000       2.265685        61.6524 
 268   0.0000       2.282089        62.0988 
 269   0.0000       2.303415        62.6791 
 270   0.0000       2.338235        63.6266 
 271   0.0000       2.371675        64.5366 
 272   0.0000       2.390465        65.0479 
 273   0.0000       2.394571        65.1596 
 274   0.0000       2.416176        65.7475 
 275   0.0000       2.419096        65.8269 
 276   0.0000       2.438163        66.3458 
 277   0.0000       2.451216        66.7010 
 278   0.0000       2.464812        67.0710 
 279   0.0000       2.481046        67.5127 
 280   0.0000       2.482282        67.5463 
 281   0.0000       2.495224        67.8985 
 282   0.0000       2.502386        68.0934 
 283   0.0000       2.518856        68.5416 
 284   0.0000       2.538317        69.0711 
 285   0.0000       2.550125        69.3924 
 286   0.0000       2.559437        69.6458 
 287   0.0000       2.591402        70.5156 
 288   0.0000       2.614274        71.1380 
 289   0.0000       2.640249        71.8448 
 290   0.0000       2.650243        72.1168 
 291   0.0000       2.672891        72.7331 
 292   0.0000       2.680747        72.9468 
 293   0.0000       2.702935        73.5506 
 294   0.0000       2.718594        73.9767 
 295   0.0000       2.737708        74.4968 
 296   0.0000       2.744728        74.6879 
 297   0.0000       2.753443        74.9250 
 298   0.0000       2.781241        75.6814 
 299   0.0000       2.799287        76.1725 
 300   0.0000       2.851393        77.5904 
 301   0.0000       2.871384        78.1343 
 302   0.0000       2.894736        78.7698 
 303   0.0000       2.943399        80.0940 
 304   0.0000       2.958037        80.4923 
 305   0.0000       2.973228        80.9057 
 306   0.0000       2.986760        81.2739 
 307   0.0000       2.993980        81.4703 
 308   0.0000       3.004638        81.7604 
 309   0.0000       3.038822        82.6906 
 310   0.0000       3.055915        83.1557 
 311   0.0000       3.064776        83.3968 
 312   0.0000       3.103872        84.4606 
 313   0.0000       3.107507        84.5596 
 314   0.0000       3.128499        85.1308 
 315   0.0000       3.143757        85.5460 
 316   0.0000       3.162108        86.0453 
 317   0.0000       3.194232        86.9195 
 318   0.0000       3.206395        87.2504 
 319   0.0000       3.307400        89.9989 
 320   0.0000       3.358045        91.3771 
 321   0.0000       3.433992        93.4437 

                    ********************************
                    * MULLIKEN POPULATION ANALYSIS *
                    ********************************

-----------------------
MULLIKEN ATOMIC CHARGES
-----------------------
   0 S :    0.129088
   1 C :   -0.098004
   2 C :   -0.104352
   3 C :    0.050345
   4 C :   -0.161633
   5 H :    0.005497
   6 C :    0.057216
   7 H :    0.014494
   8 H :    0.044496
   9 C :   -0.115691
  10 H :    0.032271
  11 H :    0.024924
  12 C :   -0.025078
  13 H :    0.032056
  14 H :    0.040938
  15 H :    0.032229
  16 S :    0.095310
  17 C :   -0.092363
  18 C :   -0.093732
  19 C :    0.015915
  20 C :   -0.185435
  21 H :    0.041672
  22 C :    0.097521
  23 H :    0.011097
  24 H :    0.024259
  25 C :   -0.070384
  26 H :    0.032191
  27 H :    0.029152
  28 C :   -0.057429
  29 H :    0.024418
  30 H :    0.025455
  31 H :    0.043184
  32 H :    0.035205
  33 H :    0.065167
Sum of atomic charges:   -0.0000000

--------------------------------
MULLIKEN REDUCED ORBITAL CHARGES
--------------------------------
  0 S s       :     5.846728  s :     5.846728
      pz      :     3.623006  p :     9.922863
      px      :     2.966962
      py      :     3.332895
      dz2     :     0.010646  d :     0.101322
      dxz     :     0.023689
      dyz     :     0.012190
      dx2y2   :     0.014870
      dxy     :     0.039927
  1 C s       :     3.153638  s :     3.153638
      pz      :     1.072411  p :     2.910077
      px      :     0.925703
      py      :     0.911963
      dz2     :     0.005510  d :     0.034288
      dxz     :     0.004727
      dyz     :     0.005932
      dx2y2   :     0.008929
      dxy     :     0.009190
  2 C s       :     3.082425  s :     3.082425
      pz      :     0.994405  p :     2.979217
      px      :     1.013753
      py      :     0.971060
      dz2     :     0.005996  d :     0.042709
      dxz     :     0.007309
      dyz     :     0.006423
      dx2y2   :     0.011882
      dxy     :     0.011099
  3 C s       :     3.186244  s :     3.186244
      pz      :     0.954713  p :     2.727431
      px      :     0.883604
      py      :     0.889114
      dz2     :     0.004566  d :     0.035980
      dxz     :     0.007194
      dyz     :     0.005208
      dx2y2   :     0.009481
      dxy     :     0.009530
  4 C s       :     3.049069  s :     3.049069
      pz      :     1.064182  p :     3.067181
      px      :     1.005568
      py      :     0.997431
      dz2     :     0.006874  d :     0.045384
      dxz     :     0.008938
      dyz     :     0.006089
      dx2y2   :     0.009668
      dxy     :     0.013814
  5 H s       :     0.969856  s :     0.969856
      pz      :     0.007055  p :     0.024647
      px      :     0.009075
      py      :     0.008518
  6 C s       :     2.992364  s :     2.992364
      pz      :     1.009258  p :     2.916194
      px      :     0.993656
      py      :     0.913280
      dz2     :     0.010468  d :     0.034225
      dxz     :     0.002006
      dyz     :     0.006776
      dx2y2   :     0.009546
      dxy     :     0.005430
  7 H s       :     0.963602  s :     0.963602
      pz      :     0.004500  p :     0.021904
      px      :     0.013485
      py      :     0.003919
  8 H s       :     0.933800  s :     0.933800
      pz      :     0.013688  p :     0.021703
      px      :     0.004709
      py      :     0.003306
  9 C s       :     3.078461  s :     3.078461
      pz      :     1.025971  p :     2.999755
      px      :     1.030528
      py      :     0.943256
      dz2     :     0.009940  d :     0.037475
      dxz     :     0.001969
      dyz     :     0.007394
      dx2y2   :     0.010227
      dxy     :     0.007944
 10 H s       :     0.945087  s :     0.945087
      pz      :     0.013685  p :     0.022642
      px      :     0.004520
      py      :     0.004437
 11 H s       :     0.953600  s :     0.953600
      pz      :     0.004861  p :     0.021476
      px      :     0.012518
      py      :     0.004098
 12 C s       :     3.002279  s :     3.002279
      pz      :     1.019016  p :     2.994737
      px      :     0.995335
      py      :     0.980387
      dz2     :     0.007048  d :     0.028062
      dxz     :     0.003564
      dyz     :     0.004820
      dx2y2   :     0.006697
      dxy     :     0.005933
 13 H s       :     0.943525  s :     0.943525
      pz      :     0.006501  p :     0.024419
      px      :     0.013443
      py      :     0.004475
 14 H s       :     0.935430  s :     0.935430
      pz      :     0.007091  p :     0.023632
      px      :     0.007329
      py      :     0.009213
 15 H s       :     0.944220  s :     0.944220
      pz      :     0.013810  p :     0.023551
      px      :     0.004853
      py      :     0.004888
 16 S s       :     5.851810  s :     5.851810
      pz      :     3.641027  p :     9.948286
      px      :     3.153674
      py      :     3.153585
      dz2     :     0.011689  d :     0.104594
      dxz     :     0.018923
      dyz     :     0.017561
      dx2y2   :     0.043722
      dxy     :     0.012700
 17 C s       :     3.161762  s :     3.161762
      pz      :     1.064373  p :     2.898101
      px      :     0.867054
      py      :     0.966674
      dz2     :     0.005452  d :     0.032499
      dxz     :     0.005066
      dyz     :     0.004479
      dx2y2   :     0.009873
      dxy     :     0.007630
 18 C s       :     3.201468  s :     3.201468
      pz      :     0.987947  p :     2.858853
      px      :     0.934792
      py      :     0.936114
      dz2     :     0.004032  d :     0.033411
      dxz     :     0.004569
      dyz     :     0.006683
      dx2y2   :     0.009616
      dxy     :     0.008511
 19 C s       :     3.035899  s :     3.035899
      pz      :     0.991105  p :     2.903772
      px      :     0.973297
      py      :     0.939370
      dz2     :     0.007073  d :     0.044414
      dxz     :     0.007109
      dyz     :     0.007201
      dx2y2   :     0.010088
      dxy     :     0.012943
 20 C s       :     3.077385  s :     3.077385
      pz      :     1.105824  p :     3.063498
      px      :     1.055007
      py      :     0.902667
      dz2     :     0.006293  d :     0.044552
      dxz     :     0.008499
      dyz     :     0.005834
      dx2y2   :     0.014979
      dxy     :     0.008947
 21 H s       :     0.936939  s :     0.936939
      pz      :     0.006114  p :     0.021389
      px      :     0.012269
      py      :     0.003006
 22 C s       :     2.912234  s :     2.912234
      pz      :     1.028832  p :     2.951177
      px      :     0.950937
      py      :     0.971408
      dz2     :     0.012163  d :     0.039068
      dxz     :     0.003751
      dyz     :     0.004647
      dx2y2   :     0.009035
      dxy     :     0.009473
 23 H s       :     0.961465  s :     0.961465
      pz      :     0.015317  p :     0.027438
      px      :     0.006818
      py      :     0.005304
 24 H s       :     0.952287  s :     0.952287
      pz      :     0.005300  p :     0.023453
      px      :     0.009856
      py      :     0.008297
 25 C s       :     3.041667  s :     3.041667
      pz      :     1.027183  p :     2.989455
      px      :     0.981319
      py      :     0.980953
      dz2     :     0.006646  d :     0.039262
      dxz     :     0.008816
      dyz     :     0.006773
      dx2y2   :     0.008676
      dxy     :     0.008351
 26 H s       :     0.943910  s :     0.943910
      pz      :     0.013793  p :     0.023899
      px      :     0.005815
      py      :     0.004291
 27 H s       :     0.946646  s :     0.946646
      pz      :     0.009586  p :     0.024201
      px      :     0.008435
      py      :     0.006180
 28 C s       :     3.015791  s :     3.015791
      pz      :     1.016658  p :     3.012782
      px      :     1.034439
      py      :     0.961684
      dz2     :     0.006182  d :     0.028855
      dxz     :     0.003170
      dyz     :     0.005992
      dx2y2   :     0.005416
      dxy     :     0.008094
 29 H s       :     0.951672  s :     0.951672
      pz      :     0.005799  p :     0.023910
      px      :     0.012622
      py      :     0.005489
 30 H s       :     0.950558  s :     0.950558
      pz      :     0.007598  p :     0.023986
      px      :     0.009303
      py      :     0.007085
 31 H s       :     0.934626  s :     0.934626
      pz      :     0.012972  p :     0.022190
      px      :     0.005067
      py      :     0.004152
 32 H s       :     0.940386  s :     0.940386
      pz      :     0.005569  p :     0.024409
      px      :     0.014547
      py      :     0.004292
 33 H s       :     0.911282  s :     0.911282
      pz      :     0.004871  p :     0.023551
      px      :     0.007408
      py      :     0.011272


                     *******************************
                     * LOEWDIN POPULATION ANALYSIS *
                     *******************************

----------------------
LOEWDIN ATOMIC CHARGES
----------------------
   0 S :    0.394165
   1 C :   -0.200881
   2 C :   -0.062217
   3 C :   -0.056123
   4 C :   -0.178596
   5 H :    0.029807
   6 C :   -0.036210
   7 H :    0.030093
   8 H :    0.033227
   9 C :   -0.052483
  10 H :    0.025688
  11 H :    0.021809
  12 C :   -0.059916
  13 H :    0.020039
  14 H :    0.034795
  15 H :    0.026064
  16 S :    0.393012
  17 C :   -0.196578
  18 C :   -0.076007
  19 C :   -0.053907
  20 C :   -0.188660
  21 H :    0.037967
  22 C :   -0.028136
  23 H :    0.031360
  24 H :    0.029827
  25 C :   -0.037725
  26 H :    0.019099
  27 H :    0.025852
  28 C :   -0.067948
  29 H :    0.024795
  30 H :    0.025603
  31 H :    0.033290
  32 H :    0.026130
  33 H :    0.032764

-------------------------------
LOEWDIN REDUCED ORBITAL CHARGES
-------------------------------
  0 S s       :     5.530899  s :     5.530899
      pz      :     3.596060  p :     9.950199
      px      :     2.985079
      py      :     3.369060
      dz2     :     0.012530  d :     0.124736
      dxz     :     0.029799
      dyz     :     0.012890
      dx2y2   :     0.018044
      dxy     :     0.051473
  1 C s       :     2.930101  s :     2.930101
      pz      :     1.091546  p :     3.189814
      px      :     1.060443
      py      :     1.037825
      dz2     :     0.010707  d :     0.080966
      dxz     :     0.010652
      dyz     :     0.014225
      dx2y2   :     0.022417
      dxy     :     0.022965
  2 C s       :     2.870668  s :     2.870668
      pz      :     0.998889  p :     3.087371
      px      :     1.058574
      py      :     1.029908
      dz2     :     0.012464  d :     0.104178
      dxz     :     0.016785
      dyz     :     0.014681
      dx2y2   :     0.031094
      dxy     :     0.029154
  3 C s       :     2.854509  s :     2.854509
      pz      :     1.015265  p :     3.105357
      px      :     1.046199
      py      :     1.043893
      dz2     :     0.009626  d :     0.096257
      dxz     :     0.017187
      dyz     :     0.014529
      dx2y2   :     0.027723
      dxy     :     0.027191
  4 C s       :     2.906907  s :     2.906907
      pz      :     1.075861  p :     3.163731
      px      :     1.015229
      py      :     1.072641
      dz2     :     0.013795  d :     0.107958
      dxz     :     0.019839
      dyz     :     0.014681
      dx2y2   :     0.024519
      dxy     :     0.035124
  5 H s       :     0.898085  s :     0.898085
      pz      :     0.020469  p :     0.072108
      px      :     0.026938
      py      :     0.024701
  6 C s       :     2.846243  s :     2.846243
      pz      :     1.051405  p :     3.105560
      px      :     1.048948
      py      :     1.005207
      dz2     :     0.025453  d :     0.084408
      dxz     :     0.004592
      dyz     :     0.016818
      dx2y2   :     0.024620
      dxy     :     0.012924
  7 H s       :     0.906988  s :     0.906988
      pz      :     0.012295  p :     0.062919
      px      :     0.038591
      py      :     0.012033
  8 H s       :     0.902851  s :     0.902851
      pz      :     0.039697  p :     0.063922
      px      :     0.012796
      py      :     0.011429
  9 C s       :     2.839336  s :     2.839336
      pz      :     1.063077  p :     3.122869
      px      :     1.049210
      py      :     1.010581
      dz2     :     0.024691  d :     0.090278
      dxz     :     0.004352
      dyz     :     0.017723
      dx2y2   :     0.024455
      dxy     :     0.019057
 10 H s       :     0.906234  s :     0.906234
      pz      :     0.039708  p :     0.068078
      px      :     0.013713
      py      :     0.014657
 11 H s       :     0.916242  s :     0.916242
      pz      :     0.013218  p :     0.061948
      px      :     0.035695
      py      :     0.013035
 12 C s       :     2.831284  s :     2.831284
      pz      :     1.069024  p :     3.157225
      px      :     1.055166
      py      :     1.033036
      dz2     :     0.018704  d :     0.071406
      dxz     :     0.008864
      dyz     :     0.011381
      dx2y2   :     0.016297
      dxy     :     0.016160
 13 H s       :     0.909480  s :     0.909480
      pz      :     0.017287  p :     0.070481
      px      :     0.038732
      py      :     0.014462
 14 H s       :     0.900144  s :     0.900144
      pz      :     0.018624  p :     0.065061
      px      :     0.019771
      py      :     0.026666
 15 H s       :     0.908073  s :     0.908073
      pz      :     0.038491  p :     0.065863
      px      :     0.012596
      py      :     0.014776
 16 S s       :     5.523543  s :     5.523543
      pz      :     3.606695  p :     9.955067
      px      :     3.171942
      py      :     3.176430
      dz2     :     0.014047  d :     0.128377
      dxz     :     0.022268
      dyz     :     0.020717
      dx2y2   :     0.056657
      dxy     :     0.014688
 17 C s       :     2.952592  s :     2.952592
      pz      :     1.083283  p :     3.169030
      px      :     1.008666
      py      :     1.077081
      dz2     :     0.010157  d :     0.074957
      dxz     :     0.010221
      dyz     :     0.011310
      dx2y2   :     0.024355
      dxy     :     0.018914
 18 C s       :     2.887714  s :     2.887714
      pz      :     1.024718  p :     3.102995
      px      :     1.036119
      py      :     1.042158
      dz2     :     0.008033  d :     0.085298
      dxz     :     0.010550
      dyz     :     0.017148
      dx2y2   :     0.025910
      dxy     :     0.023657
 19 C s       :     2.849583  s :     2.849583
      pz      :     0.992435  p :     3.091501
      px      :     1.057198
      py      :     1.041868
      dz2     :     0.015077  d :     0.112823
      dxz     :     0.018012
      dyz     :     0.016138
      dx2y2   :     0.027864
      dxy     :     0.035733
 20 C s       :     2.905057  s :     2.905057
      pz      :     1.096858  p :     3.176025
      px      :     1.082710
      py      :     0.996457
      dz2     :     0.012615  d :     0.107578
      dxz     :     0.019941
      dyz     :     0.012703
      dx2y2   :     0.038873
      dxy     :     0.023445
 21 H s       :     0.899207  s :     0.899207
      pz      :     0.017800  p :     0.062826
      px      :     0.035144
      py      :     0.009883
 22 C s       :     2.803355  s :     2.803355
      pz      :     1.075920  p :     3.126554
      px      :     1.030660
      py      :     1.019975
      dz2     :     0.029958  d :     0.098227
      dxz     :     0.007640
      dyz     :     0.012477
      dx2y2   :     0.022385
      dxy     :     0.025767
 23 H s       :     0.888608  s :     0.888608
      pz      :     0.043400  p :     0.080032
      px      :     0.019031
      py      :     0.017601
 24 H s       :     0.903429  s :     0.903429
      pz      :     0.014524  p :     0.066744
      px      :     0.028217
      py      :     0.024002
 25 C s       :     2.809483  s :     2.809483
      pz      :     1.070268  p :     3.130735
      px      :     1.033051
      py      :     1.027416
      dz2     :     0.018344  d :     0.097508
      dxz     :     0.021667
      dyz     :     0.015165
      dx2y2   :     0.023222
      dxy     :     0.019109
 26 H s       :     0.909170  s :     0.909170
      pz      :     0.037813  p :     0.071731
      px      :     0.018549
      py      :     0.015369
 27 H s       :     0.904587  s :     0.904587
      pz      :     0.026439  p :     0.069561
      px      :     0.023604
      py      :     0.019518
 28 C s       :     2.839594  s :     2.839594
      pz      :     1.060281  p :     3.154819
      px      :     1.075936
      py      :     1.018601
      dz2     :     0.016676  d :     0.073535
      dxz     :     0.008143
      dyz     :     0.013990
      dx2y2   :     0.015379
      dxy     :     0.019347
 29 H s       :     0.910627  s :     0.910627
      pz      :     0.015033  p :     0.064578
      px      :     0.033841
      py      :     0.015704
 30 H s       :     0.908127  s :     0.908127
      pz      :     0.020736  p :     0.066270
      px      :     0.024251
      py      :     0.021282
 31 H s       :     0.905649  s :     0.905649
      pz      :     0.035840  p :     0.061061
      px      :     0.012719
      py      :     0.012502
 32 H s       :     0.897725  s :     0.897725
      pz      :     0.017889  p :     0.076145
      px      :     0.043385
      py      :     0.014870
 33 H s       :     0.893438  s :     0.893438
      pz      :     0.016321  p :     0.073798
      px      :     0.024327
      py      :     0.033150


                      *****************************
                      * MAYER POPULATION ANALYSIS *
                      *****************************

  NA   - Mulliken gross atomic population
  ZA   - Total nuclear charge
  QA   - Mulliken gross atomic charge
  VA   - Mayer's total valence
  BVA  - Mayer's bonded valence
  FA   - Mayer's free valence

  ATOM       NA         ZA         QA         VA         BVA        FA
  0 S     15.8709    16.0000     0.1291     2.4572     2.4572    -0.0000
  1 C      6.0980     6.0000    -0.0980     3.8614     3.8614    -0.0000
  2 C      6.1044     6.0000    -0.1044     4.0527     4.0527     0.0000
  3 C      5.9497     6.0000     0.0503     3.9204     3.9204     0.0000
  4 C      6.1616     6.0000    -0.1616     3.9241     3.9241    -0.0000
  5 H      0.9945     1.0000     0.0055     1.0017     1.0017     0.0000
  6 C      5.9428     6.0000     0.0572     3.9428     3.9428     0.0000
  7 H      0.9855     1.0000     0.0145     0.9910     0.9910     0.0000
  8 H      0.9555     1.0000     0.0445     0.9820     0.9820     0.0000
  9 C      6.1157     6.0000    -0.1157     4.0774     4.0774     0.0000
 10 H      0.9677     1.0000     0.0323     0.9791     0.9791    -0.0000
 11 H      0.9751     1.0000     0.0249     0.9761     0.9761    -0.0000
 12 C      6.0251     6.0000    -0.0251     3.9995     3.9995     0.0000
 13 H      0.9679     1.0000     0.0321     0.9903     0.9903     0.0000
 14 H      0.9591     1.0000     0.0409     0.9874     0.9874     0.0000
 15 H      0.9678     1.0000     0.0322     0.9886     0.9886     0.0000
 16 S     15.9047    16.0000     0.0953     2.4802     2.4802    -0.0000
 17 C      6.0924     6.0000    -0.0924     3.8462     3.8462     0.0000
 18 C      6.0937     6.0000    -0.0937     3.9461     3.9461    -0.0000
 19 C      5.9841     6.0000     0.0159     4.0344     4.0344    -0.0000
 20 C      6.1854     6.0000    -0.1854     3.9418     3.9418    -0.0000
 21 H      0.9583     1.0000     0.0417     0.9917     0.9917    -0.0000
 22 C      5.9025     6.0000     0.0975     3.9239     3.9239    -0.0000
 23 H      0.9889     1.0000     0.0111     0.9839     0.9839    -0.0000
 24 H      0.9757     1.0000     0.0243     1.0082     1.0082    -0.0000
 25 C      6.0704     6.0000    -0.0704     4.0701     4.0701     0.0000
 26 H      0.9678     1.0000     0.0322     0.9864     0.9864     0.0000
 27 H      0.9708     1.0000     0.0292     0.9732     0.9732     0.0000
 28 C      6.0574     6.0000    -0.0574     4.0128     4.0128     0.0000
 29 H      0.9756     1.0000     0.0244     0.9896     0.9896     0.0000
 30 H      0.9745     1.0000     0.0255     0.9853     0.9853     0.0000
 31 H      0.9568     1.0000     0.0432     0.9854     0.9854     0.0000
 32 H      0.9648     1.0000     0.0352     1.0097     1.0097    -0.0000
 33 H      0.9348     1.0000     0.0652     0.9953     0.9953     0.0000

  Mayer bond orders larger than 0.100000
B(  0-S ,  1-C ) :   1.1295 B(  0-S ,  4-C ) :   1.1259 B(  1-C ,  2-C ) :   1.6510 
B(  1-C , 32-H ) :   0.9526 B(  2-C ,  3-C ) :   1.2264 B(  2-C ,  6-C ) :   1.0219 
B(  3-C ,  4-C ) :   1.6010 B(  3-C ,  5-H ) :   0.9968 B(  4-C , 20-C ) :   1.0435 
B(  6-C ,  7-H ) :   0.9406 B(  6-C ,  8-H ) :   0.9430 B(  6-C ,  9-C ) :   1.0554 
B(  9-C , 10-H ) :   0.9542 B(  9-C , 11-H ) :   0.9552 B(  9-C , 12-C ) :   1.0877 
B( 12-C , 13-H ) :   0.9742 B( 12-C , 14-H ) :   0.9735 B( 12-C , 15-H ) :   0.9744 
B( 16-S , 17-C ) :   1.1493 B( 16-S , 20-C ) :   1.1365 B( 17-C , 18-C ) :   1.6057 
B( 17-C , 20-C ) :   0.1055 B( 17-C , 33-H ) :   0.9659 B( 18-C , 19-C ) :   1.2347 
B( 18-C , 21-H ) :   0.9741 B( 19-C , 20-C ) :   1.5949 B( 19-C , 22-C ) :   1.0465 
B( 22-C , 23-H ) :   0.9168 B( 22-C , 24-H ) :   0.9498 B( 22-C , 25-C ) :   1.0328 
B( 25-C , 26-H ) :   0.9723 B( 25-C , 27-H ) :   0.9477 B( 25-C , 28-C ) :   1.0831 
B( 28-C , 29-H ) :   0.9787 B( 28-C , 30-H ) :   0.9728 B( 28-C , 31-H ) :   0.9714 


-------
TIMINGS
-------

Total SCF time: 0 days 0 hours 0 min 19 sec 

Total time                  ....      19.395 sec
Sum of individual times     ....      18.524 sec  ( 95.5%)

Fock matrix formation       ....      16.853 sec  ( 86.9%)
  XC integration            ....       1.500 sec  (  8.9% of F)
    Basis function eval.    ....       0.149 sec  (  9.9% of XC)
    Density eval.           ....       0.103 sec  (  6.9% of XC)
    XC-Functional eval.     ....       0.115 sec  (  7.6% of XC)
    XC-Potential eval.      ....       0.125 sec  (  8.4% of XC)
Diagonalization             ....       0.144 sec  (  0.7%)
Density matrix formation    ....       0.030 sec  (  0.2%)
Population analysis         ....       0.054 sec  (  0.3%)
Initial guess               ....       0.166 sec  (  0.9%)
Orbital Transformation      ....       0.000 sec  (  0.0%)
Orbital Orthonormalization  ....       0.000 sec  (  0.0%)
DIIS solution               ....       0.157 sec  (  0.8%)
SOSCF solution              ....       0.128 sec  (  0.7%)
Grid generation             ....       0.991 sec  (  5.1%)


-------------------------------------------------------------------------------
                          DFT DISPERSION CORRECTION                            
                                                                               
                              DFTD3 V3.1  Rev 1                                
                              USING zero damping                               
-------------------------------------------------------------------------------
The omegaB97X-D3 functional is recognized. Fit by Chai et al.
Active option DFTDOPT                   ...         3   

molecular C6(AA) [au] = 14193.588001 


            DFT-D V3
 parameters
 s6 scaling factor         :     1.0000 
 rs6 scaling factor        :     1.2810 
 s8 scaling factor         :     1.0000 
 rs8 scaling factor        :     1.0940 
 Damping factor alpha6     :    14.0000 
 Damping factor alpha8     :    16.0000 
 ad hoc parameters k1-k3   :    16.0000     1.3333    -4.0000 

 Edisp/kcal,au: -8.509362223390  -0.013560530426 
 E6   /kcal   :  -3.874837727 
 E8   /kcal   :  -4.634524497 
 % E8         :  54.463829073 

-------------------------   ----------------
Dispersion correction           -0.013560530
-------------------------   ----------------


-------------------------   --------------------
FINAL SINGLE POINT ENERGY     -1339.860395503957
-------------------------   --------------------


                            ***************************************
                            *     ORCA property calculations      *
                            ***************************************

                                    ---------------------
                                    Active property flags
                                    ---------------------
   (+) Dipole Moment


------------------------------------------------------------------------------
                       ORCA ELECTRIC PROPERTIES CALCULATION
------------------------------------------------------------------------------

Dipole Moment Calculation                       ... on
Quadrupole Moment Calculation                   ... off
Polarizability Calculation                      ... off
GBWName                                         ... config_6170.gbw
Electron density file                           ... config_6170.scfp
The origin for moment calculation is the CENTER OF MASS  = (-171.699386, -17.687095 -225.855362)

-------------
DIPOLE MOMENT
-------------
                                X             Y             Z
Electronic contribution:      2.86803      32.11953      -2.12295
Nuclear contribution   :     -3.06599     -32.81299       2.37034
                        -----------------------------------------
Total Dipole Moment    :     -0.19797      -0.69346       0.24739
                        -----------------------------------------
Magnitude (a.u.)       :      0.76241
Magnitude (Debye)      :      1.93790



--------------------
Rotational spectrum 
--------------------
 
Rotational constants in cm-1:     0.017084     0.008891     0.006217 
Rotational constants in MHz :   512.176097   266.555156   186.394112 

 Dipole components along the rotational axes: 
x,y,z [a.u.] :    -0.235758    -0.707219     0.159792 
x,y,z [Debye]:    -0.599249    -1.797609     0.406158 

 

Timings for individual modules:

Sum of individual times         ...       20.573 sec (=   0.343 min)
GTO integral calculation        ...        0.791 sec (=   0.013 min)   3.8 %
SCF iterations                  ...       19.783 sec (=   0.330 min)  96.2 %
                             ****ORCA TERMINATED NORMALLY****
TOTAL RUN TIME: 0 days 0 hours 0 minutes 21 seconds 264 msec
