
                                 *****************
                                 * O   R   C   A *
                                 *****************

           --- An Ab Initio, DFT and Semiempirical electronic structure package ---

                  #######################################################
                  #                        -***-                        #
                  #          Department of theory and spectroscopy      #
                  #               Directorship: Frank Neese             #
                  #        Max Planck Institute fuer Kohlenforschung    #
                  #                Kaiser Wilhelm Platz 1               #
                  #                 D-45470 Muelheim/Ruhr               #
                  #                      Germany                        #
                  #                                                     #
                  #                  All rights reserved                #
                  #                        -***-                        #
                  #######################################################


                         Program Version 4.2.1 -  RELEASE  -


 With contributions from (in alphabetic order):
   Daniel Aravena         : Magnetic Suceptibility
   Michael Atanasov       : Ab Initio Ligand Field Theory (pilot matlab implementation)
   Alexander A. Auer      : GIAO ZORA, VPT2
   Ute Becker             : Parallelization
   Giovanni Bistoni       : ED, misc. LED, open-shell LED, HFLD
   Martin Brehm           : Molecular dynamics
   Dmytro Bykov           : SCF Hessian
   Vijay G. Chilkuri      : MRCI spin determinant printing, contributions to CSF-ICE
   Dipayan Datta          : RHF DLPNO-CCSD density
   Achintya Kumar Dutta   : EOM-CC, STEOM-CC
   Dmitry Ganyushin       : Spin-Orbit,Spin-Spin,Magnetic field MRCI
   Miquel Garcia          : C-PCM Hessian, Gaussian charge scheme
   Yang Guo               : DLPNO-NEVPT2, CIM, IAO-localization
   Andreas Hansen         : Spin unrestricted coupled pair/coupled cluster methods
   Benjamin Helmich-Paris : CASSCF linear response (MC-RPA)
   Lee Huntington         : MR-EOM, pCC
   Robert Izsak           : Overlap fitted RIJCOSX, COSX-SCS-MP3, EOM
   Christian Kollmar      : KDIIS, OOCD, Brueckner-CCSD(T), CCSD density
   Simone Kossmann        : Meta GGA functionals, TD-DFT gradient, OOMP2, MP2 Hessian
   Martin Krupicka        : AUTO-CI
   Lucas Lang             : DCDCAS
   Dagmar Lenk            : GEPOL surface, SMD
   Dimitrios Liakos       : Extrapolation schemes; Compound Job, initial MDCI parallelization
   Dimitrios Manganas     : Further ROCIS development; embedding schemes
   Dimitrios Pantazis     : SARC Basis sets
   Taras Petrenko         : DFT Hessian,TD-DFT gradient, ASA, ECA, R-Raman, ABS, FL, XAS/XES, NRVS
   Peter Pinski           : DLPNO-MP2, DLPNO-MP2 Gradient
   Christoph Reimann      : Effective Core Potentials
   Marius Retegan         : Local ZFS, SOC
   Christoph Riplinger    : Optimizer, TS searches, QM/MM, DLPNO-CCSD(T), (RO)-DLPNO pert. Triples
   Tobias Risthaus        : Range-separated hybrids, TD-DFT gradient, RPA, STAB
   Michael Roemelt        : Original ROCIS implementation
   Masaaki Saitow         : Open-shell DLPNO-CCSD energy and density
   Barbara Sandhoefer     : DKH picture change effects
   Avijit Sen             : IP-ROCIS
   Kantharuban Sivalingam : CASSCF convergence, NEVPT2, FIC-MRCI
   Bernardo de Souza      : ESD, SOC TD-DFT
   Georgi Stoychev        : AutoAux, RI-MP2 NMR
   Willem Van den Heuvel  : Paramagnetic NMR
   Boris Wezisla          : Elementary symmetry handling
   Frank Wennmohs         : Technical directorship


 We gratefully acknowledge several colleagues who have allowed us to
 interface, adapt or use parts of their codes:
   Stefan Grimme, W. Hujo, H. Kruse,             : VdW corrections, initial TS optimization,
                  C. Bannwarth                     DFT functionals, gCP, sTDA/sTD-DF
   Ed Valeev, F. Pavosevic, A. Kumar             : LibInt (2-el integral package), F12 methods
   Garnet Chan, S. Sharma, J. Yang, R. Olivares  : DMRG
   Ulf Ekstrom                                   : XCFun DFT Library
   Mihaly Kallay                                 : mrcc  (arbitrary order and MRCC methods)
   Andreas Klamt, Michael Diedenhofen            : otool_cosmo (COSMO solvation model)
   Jiri Pittner, Ondrej Demel                    : Mk-CCSD
   Frank Weinhold                                : gennbo (NPA and NBO analysis)
   Christopher J. Cramer and Donald G. Truhlar   : smd solvation model
   Lars Goerigk                                  : TD-DFT with DH, B97 family of functionals
   V. Asgeirsson, H. Jonsson                     : NEB implementation
   FAccTs GmbH                                   : IRC, NEB, NEB-TS, Multilevel, MM, QM/MM, CI optimization
   S Lehtola, MJT Oliveira, MAL Marques          : LibXC Library


 Your calculation uses the libint2 library for the computation of 2-el integrals
 For citations please refer to: http://libint.valeyev.net

 Your ORCA version has been built with support for libXC version: 4.2.3
 For citations please refer to: https://tddft.org/programs/libxc/

 This ORCA versions uses:
   CBLAS   interface :  Fast vector & matrix operations
   LAPACKE interface :  Fast linear algebra routines
   SCALAPACK package :  Parallel linear algebra routines


Your calculation utilizes the atom-pairwise dispersion correction
with the zero-damping scheme (D30)
Cite in your paper:
S.Grimme, J.Antony, S.Ehrlich and H.Krieg, J.Chem.Phys., 132, (2010), 154104 
   

XCFun DFT library Copyright 2009-2010 Ulf Ekstrom and contributors.
See http://admol.org/xcfun for more information. This is free soft-
ware; see the source code for copying conditions. There is ABSOLUTELY
NO WARRANTY; not even for MERCHANTABILITY or FITNESS FOR A PARTICULAR
PURPOSE. For details see the documentation. Scientific users of this 
library should cite U. Ekstrom, L. Visscher, R. Bast, A. J. Thorvald-
sen and K. Ruud; J.Chem.Theor.Comp. 2010, DOI: 10.1021/ct100117s
XCFun Version 0.99 
----- Orbital basis set information -----
Your calculation utilizes the basis: def2-SVP
   F. Weigend and R. Ahlrichs, Phys. Chem. Chem. Phys. 7, 3297 (2005).

================================================================================
                                        WARNINGS
                       Please study these warnings very carefully!
================================================================================


INFO   : the flag for use of LIBINT has been found!

================================================================================
                                       INPUT FILE
================================================================================
NAME = config_9081.inp
|  1> ! wB97X-D3 SP def2-SVP
|  2> %pal
|  3> nprocs 24
|  4> end
|  5> 
|  6> * xyz 0 1
|  7> S 	 19.1828 	 -21.2984 	 -120.034 	 
|  8> C 	 20.6551 	 -22.0946 	 -120.536 	 
|  9> C 	 21.2806 	 -22.8057 	 -119.512 	 
| 10> C 	 20.5309 	 -22.6229 	 -118.287 	 
| 11> C 	 19.4632 	 -21.7754 	 -118.408 	 
| 12> H 	 20.8274 	 -22.9817 	 -117.299 	 
| 13> C 	 22.5572 	 -23.5854 	 -119.602 	 
| 14> H 	 22.4448 	 -24.4182 	 -120.317 	 
| 15> H 	 22.6651 	 -24.1786 	 -118.656 	 
| 16> C 	 23.8002 	 -22.7288 	 -119.849 	 
| 17> H 	 23.6214 	 -22.1382 	 -120.785 	 
| 18> H 	 23.9157 	 -22.0602 	 -119.033 	 
| 19> C 	 25.0816 	 -23.5366 	 -119.948 	 
| 20> H 	 25.0683 	 -24.194 	 -120.82 	 
| 21> H 	 25.9894 	 -22.904 	 -120.072 	 
| 22> H 	 25.3552 	 -24.033 	 -119.018 	 
| 23> S 	 17.2523 	 -21.9671 	 -116.7 	 
| 24> C 	 17.3652 	 -21.1298 	 -115.174 	 
| 25> C 	 18.439 	 -20.3091 	 -115.126 	 
| 26> C 	 19.2366 	 -20.3731 	 -116.281 	 
| 27> C 	 18.7777 	 -21.2617 	 -117.204 	 
| 28> H 	 18.5924 	 -19.6235 	 -114.287 	 
| 29> C 	 20.4852 	 -19.4456 	 -116.381 	 
| 30> H 	 21.0804 	 -19.7349 	 -117.228 	 
| 31> H 	 21.1082 	 -19.7721 	 -115.533 	 
| 32> C 	 20.2051 	 -17.9866 	 -116.497 	 
| 33> H 	 20.0225 	 -17.5926 	 -115.512 	 
| 34> H 	 19.2573 	 -17.7555 	 -117.006 	 
| 35> C 	 21.2385 	 -17.1305 	 -117.199 	 
| 36> H 	 20.9128 	 -16.081 	 -117.02 	 
| 37> H 	 21.144 	 -17.2339 	 -118.287 	 
| 38> H 	 22.2728 	 -17.3717 	 -116.985 	 
| 39> H 	 21.0798 	 -22.1314 	 -121.501 	 
| 40> H 	 16.603 	 -21.2013 	 -114.434 	 
| 41> *
| 42> 
| 43>                          ****END OF INPUT****
================================================================================

                       ****************************
                       * Single Point Calculation *
                       ****************************

---------------------------------
CARTESIAN COORDINATES (ANGSTROEM)
---------------------------------
  S     19.182800  -21.298400  -120.034000
  C     20.655100  -22.094600  -120.536000
  C     21.280600  -22.805700  -119.512000
  C     20.530900  -22.622900  -118.287000
  C     19.463200  -21.775400  -118.408000
  H     20.827400  -22.981700  -117.299000
  C     22.557200  -23.585400  -119.602000
  H     22.444800  -24.418200  -120.317000
  H     22.665100  -24.178600  -118.656000
  C     23.800200  -22.728800  -119.849000
  H     23.621400  -22.138200  -120.785000
  H     23.915700  -22.060200  -119.033000
  C     25.081600  -23.536600  -119.948000
  H     25.068300  -24.194000  -120.820000
  H     25.989400  -22.904000  -120.072000
  H     25.355200  -24.033000  -119.018000
  S     17.252300  -21.967100  -116.700000
  C     17.365200  -21.129800  -115.174000
  C     18.439000  -20.309100  -115.126000
  C     19.236600  -20.373100  -116.281000
  C     18.777700  -21.261700  -117.204000
  H     18.592400  -19.623500  -114.287000
  C     20.485200  -19.445600  -116.381000
  H     21.080400  -19.734900  -117.228000
  H     21.108200  -19.772100  -115.533000
  C     20.205100  -17.986600  -116.497000
  H     20.022500  -17.592600  -115.512000
  H     19.257300  -17.755500  -117.006000
  C     21.238500  -17.130500  -117.199000
  H     20.912800  -16.081000  -117.020000
  H     21.144000  -17.233900  -118.287000
  H     22.272800  -17.371700  -116.985000
  H     21.079800  -22.131400  -121.501000
  H     16.603000  -21.201300  -114.434000

----------------------------
CARTESIAN COORDINATES (A.U.)
----------------------------
  NO LB      ZA    FRAG     MASS         X           Y           Z
   0 S    16.0000    0    32.060   36.250238  -40.248143  -226.831387
   1 C     6.0000    0    12.011   39.032482  -41.752743  -227.780029
   2 C     6.0000    0    12.011   40.214506  -43.096527  -225.844950
   3 C     6.0000    0    12.011   38.797778  -42.751085  -223.530035
   4 C     6.0000    0    12.011   36.780118  -41.149542  -223.758692
   5 H     1.0000    0     1.008   39.358082  -43.429119  -221.662986
   6 C     6.0000    0    12.011   42.626930  -44.569947  -226.015025
   7 H     1.0000    0     1.008   42.414525  -46.143711  -227.366179
   8 H     1.0000    0     1.008   42.830832  -45.690932  -224.227344
   9 C     6.0000    0    12.011   44.975860  -42.951207  -226.481787
  10 H     1.0000    0     1.008   44.637977  -41.835135  -228.250571
  11 H     1.0000    0     1.008   45.194123  -41.687736  -224.939771
  12 C     6.0000    0    12.011   47.397355  -44.477728  -226.668870
  13 H     1.0000    0     1.008   47.372222  -45.720034  -228.316712
  14 H     1.0000    0     1.008   49.112848  -43.282287  -226.903196
  15 H     1.0000    0     1.008   47.914384  -45.415788  -224.911425
  16 S    16.0000    0    32.060   32.602122  -41.511803  -220.531040
  17 C     6.0000    0    12.011   32.815472  -39.929535  -217.647318
  18 C     6.0000    0    12.011   34.844660  -38.378637  -217.556611
  19 C     6.0000    0    12.011   36.351906  -38.499579  -219.739245
  20 C     6.0000    0    12.011   35.484710  -40.178790  -221.483462
  21 H     1.0000    0     1.008   35.134544  -37.083041  -215.971131
  22 C     6.0000    0    12.011   38.711418  -36.746859  -219.928217
  23 H     1.0000    0     1.008   39.836183  -37.293556  -221.528815
  24 H     1.0000    0     1.008   39.888717  -37.363854  -218.325729
  25 C     6.0000    0    12.011   38.182106  -33.989748  -220.147425
  26 H     1.0000    0     1.008   37.837042  -33.245196  -218.286045
  27 H     1.0000    0     1.008   36.391023  -33.553032  -221.109296
  28 C     6.0000    0    12.011   40.134948  -32.371954  -221.474013
  29 H     1.0000    0     1.008   39.519465  -30.388686  -221.135752
  30 H     1.0000    0     1.008   39.956369  -32.567351  -223.530035
  31 H     1.0000    0     1.008   42.089492  -32.827755  -221.069612
  32 H     1.0000    0     1.008   39.835049  -41.822285  -229.603615
  33 H     1.0000    0     1.008   31.375123  -40.064651  -216.248920

--------------------------------
INTERNAL COORDINATES (ANGSTROEM)
--------------------------------
 S      0   0   0     0.000000000000     0.00000000     0.00000000
 C      1   0   0     1.747456932230     0.00000000     0.00000000
 C      2   1   0     1.394808036971   113.52962664     0.00000000
 C      3   2   1     1.447788289081   108.94076195   357.62948571
 C      4   3   2     1.368532257566   114.04011494   357.13298672
 H      4   3   2     1.092150946527   125.68786378   186.00164662
 C      3   2   1     1.498579210452   127.09843080   180.57489327
 H      7   3   2     1.103365125423   110.17233414   297.40772355
 H      7   3   2     1.121804194144   107.84349694   190.30241685
 C      7   3   2     1.529647528027   114.24075589    66.73310098
 H     10   7   3     1.121103831052   107.47103350   303.73891393
 H     10   7   3     1.061236170699   108.48701583    61.58943693
 C     10   7   3     1.518001251646   113.48314791   180.45258098
 H     13  10   7     1.092124374785   111.23022151    64.92290241
 H     13  10   7     1.113400017963   113.15201083   183.15184544
 H     13  10   7     1.089114282341   113.51021728   294.43780893
 S      5   4   3     2.800373492947   121.30767056   154.54912749
 C     17   5   4     1.744274548344   116.72014716    85.17247976
 C     18  17   5     1.352367897430   111.94741453    10.41736112
 C     19  18  17     1.405093149937   113.19765554   357.16132848
 C     20  19  18     1.360929156863   113.31767973   359.08408888
 H     19  18  17     1.094303394859   121.24691559   172.78254579
 C     20  19  18     1.558607779398   118.71011565   178.11730160
 H     23  20  19     1.074879774672   109.51121140   169.89944323
 H     23  20  19     1.101741916240   103.13587586    61.51288604
 C     23  20  19     1.490165430414   115.91593529   292.13669283
 H     26  23  20     1.076477477702   108.60302302    82.16440121
 H     26  23  20     1.100369506121   113.79966785   329.86647034
 C     26  23  20     1.514472439498   117.46982542   206.98332837
 H     29  26  23     1.113360561543   104.99408410   189.18486540
 H     29  26  23     1.096980314317   110.34481789    78.96302116
 H     29  26  23     1.083397401695   115.72283176   320.07613128
 H      2   1   3     1.054964136831   128.15956751   176.94213917
 H     18  17   5     1.064735220607   121.96943335   184.30581569

---------------------------
INTERNAL COORDINATES (A.U.)
---------------------------
 S      0   0   0     0.000000000000     0.00000000     0.00000000
 C      1   0   0     3.302215032738     0.00000000     0.00000000
 C      2   1   0     2.635805199268   113.52962664     0.00000000
 C      3   2   1     2.735923366261   108.94076195   357.62948571
 C      4   3   2     2.586151172238   114.04011494   357.13298672
 H      4   3   2     2.063866185839   125.68786378   186.00164662
 C      3   2   1     2.831904297743   127.09843080   180.57489327
 H      7   3   2     2.085057912769   110.17233414   297.40772355
 H      7   3   2     2.119902702817   107.84349694   190.30241685
 C      7   3   2     2.890614909401   114.24075589    66.73310098
 H     10   7   3     2.118579208379   107.47103350   303.73891393
 H     10   7   3     2.005445726033   108.48701583    61.58943693
 C     10   7   3     2.868606636561   113.48314791   180.45258098
 H     13  10   7     2.063815972524   111.23022151    64.92290241
 H     13  10   7     2.104021111453   113.15201083   183.15184544
 H     13  10   7     2.058127722167   113.51021728   294.43780893
 S      5   4   3     5.291938974362   121.30767056   154.54912749
 C     17   5   4     3.296201198739   116.72014716    85.17247976
 C     18  17   5     2.555604958450   111.94741453    10.41736112
 C     19  18  17     2.655241246030   113.19765554   357.16132848
 C     20  19  18     2.571783394140   113.31767973   359.08408888
 H     19  18  17     2.067933723704   121.24691559   172.78254579
 C     20  19  18     2.945341853261   118.71011565   178.11730160
 H     23  20  19     2.031228401022   109.51121140   169.89944323
 H     23  20  19     2.081990491955   103.13587586    61.51288604
 C     23  20  19     2.816004557719   115.91593529   292.13669283
 H     26  23  20     2.034247622191   108.60302302    82.16440121
 H     26  23  20     2.079397012686   113.79966785   329.86647034
 C     26  23  20     2.861938148023   117.46982542   206.98332837
 H     29  26  23     2.103946549626   104.99408410   189.18486540
 H     29  26  23     2.072992368363   110.34481789    78.96302116
 H     29  26  23     2.047324383406   115.72283176   320.07613128
 H      2   1   3     1.993593299720   128.15956751   176.94213917
 H     18  17   5     2.012057972087   121.96943335   184.30581569

---------------------
BASIS SET INFORMATION
---------------------
There are 3 groups of distinct atoms

 Group   1 Type S   : 10s7p1d contracted to 4s3p1d pattern {5311/511/1}
 Group   2 Type C   : 7s4p1d contracted to 3s2p1d pattern {511/31/1}
 Group   3 Type H   : 4s1p contracted to 2s1p pattern {31/1}

Atom   0S    basis set group =>   1
Atom   1C    basis set group =>   2
Atom   2C    basis set group =>   2
Atom   3C    basis set group =>   2
Atom   4C    basis set group =>   2
Atom   5H    basis set group =>   3
Atom   6C    basis set group =>   2
Atom   7H    basis set group =>   3
Atom   8H    basis set group =>   3
Atom   9C    basis set group =>   2
Atom  10H    basis set group =>   3
Atom  11H    basis set group =>   3
Atom  12C    basis set group =>   2
Atom  13H    basis set group =>   3
Atom  14H    basis set group =>   3
Atom  15H    basis set group =>   3
Atom  16S    basis set group =>   1
Atom  17C    basis set group =>   2
Atom  18C    basis set group =>   2
Atom  19C    basis set group =>   2
Atom  20C    basis set group =>   2
Atom  21H    basis set group =>   3
Atom  22C    basis set group =>   2
Atom  23H    basis set group =>   3
Atom  24H    basis set group =>   3
Atom  25C    basis set group =>   2
Atom  26H    basis set group =>   3
Atom  27H    basis set group =>   3
Atom  28C    basis set group =>   2
Atom  29H    basis set group =>   3
Atom  30H    basis set group =>   3
Atom  31H    basis set group =>   3
Atom  32H    basis set group =>   3
Atom  33H    basis set group =>   3


           ************************************************************
           *        Program running with 24 parallel MPI-processes    *
           *              working on a common directory               *
           ************************************************************
------------------------------------------------------------------------------
                           ORCA GTO INTEGRAL CALCULATION
------------------------------------------------------------------------------

                         BASIS SET STATISTICS AND STARTUP INFO

 # of primitive gaussian shells          ...  294
 # of primitive gaussian functions       ...  534
 # of contracted shells                  ...  154
 # of contracted basis functions         ...  322
 Highest angular momentum                ...    2
 Maximum contraction depth               ...    5
 Integral package used                   ... LIBINT
 Integral threshhold            Thresh   ...  1.000e-10
 Primitive cut-off              TCut     ...  1.000e-11


------------------------------ INTEGRAL EVALUATION ----------------------------


 * One electron integrals 
 Pre-screening matrix                    ... done
 Shell pair data                         ... done (   0.003 sec)



           ************************************************************
           *        Program running with 24 parallel MPI-processes    *
           *              working on a common directory               *
           ************************************************************
-------------------------------------------------------------------------------
                                 ORCA SCF
-------------------------------------------------------------------------------

------------
SCF SETTINGS
------------
Hamiltonian:
 Density Functional     Method          .... DFT(GTOs)
 Exchange Functional    Exchange        .... WB97X-D3
 Correlation Functional Correlation     .... WB97X-D3
 Gradients option       PostSCFGGA      .... off
 Hybrid DFT is turned on
   Fraction HF Exchange ScalHFX         ....  0.195728
   Scaling of DF-GGA-X  ScalDFX         ....  0.000000
   Scaling of DF-GGA-C  ScalDFC         ....  1.000000
   Scaling of DF-LDA-C  ScalLDAC        ....  1.000000
   Perturbative correction              ....  0.000000
   Density functional embedding theory  .... OFF
 Long-range corrected/Screened/Range-Separated Hybrid DFT is turned on
   Amount of maximum screened exact exchange              ....  0.804272
   Range separation parameter mu (erf(mu*r12)/r12)        ....  0.250000


General Settings:
 Integral files         IntName         .... config_9081
 Hartree-Fock type      HFTyp           .... RHF
 Total Charge           Charge          ....    0
 Multiplicity           Mult            ....    1
 Number of Electrons    NEL             ....  134
 Basis Dimension        Dim             ....  322
 Nuclear Repulsion      ENuc            ....   1275.6353979026 Eh

Convergence Acceleration:
 DIIS                   CNVDIIS         .... on
   Start iteration      DIISMaxIt       ....    12
   Startup error        DIISStart       ....  0.200000
   # of expansion vecs  DIISMaxEq       ....     5
   Bias factor          DIISBfac        ....   1.050
   Max. coefficient     DIISMaxC        ....  10.000
 Newton-Raphson         CNVNR           .... off
 SOSCF                  CNVSOSCF        .... on
   Start iteration      SOSCFMaxIt      ....   150
   Startup grad/error   SOSCFStart      ....  0.003300
 Level Shifting         CNVShift        .... on
   Level shift para.    LevelShift      ....    0.2500
   Turn off err/grad.   ShiftErr        ....    0.0010
 Zerner damping         CNVZerner       .... off
 Static damping         CNVDamp         .... on
   Fraction old density DampFac         ....    0.7000
   Max. Damping (<1)    DampMax         ....    0.9800
   Min. Damping (>=0)   DampMin         ....    0.0000
   Turn off err/grad.   DampErr         ....    0.1000
 Fernandez-Rico         CNVRico         .... off

SCF Procedure:
 Maximum # iterations   MaxIter         ....   125
 SCF integral mode      SCFMode         .... Direct
   Integral package                     .... LIBINT
 Reset frequency        DirectResetFreq ....    20
 Integral Threshold     Thresh          ....  1.000e-10 Eh
 Primitive CutOff       TCut            ....  1.000e-11 Eh

Convergence Tolerance:
 Convergence Check Mode ConvCheckMode   .... Total+1el-Energy
 Convergence forced     ConvForced      .... 0
 Energy Change          TolE            ....  1.000e-06 Eh
 1-El. energy change                    ....  1.000e-03 Eh
 Orbital Gradient       TolG            ....  5.000e-05
 Orbital Rotation angle TolX            ....  5.000e-05
 DIIS Error             TolErr          ....  1.000e-06


Diagonalization of the overlap matrix:
Smallest eigenvalue                        ... 6.151e-04
Time for diagonalization                   ...    0.015 sec
Threshold for overlap eigenvalues          ... 1.000e-08
Number of eigenvalues below threshold      ... 0
Time for construction of square roots      ...    0.027 sec
Total time needed                          ...    0.042 sec

-------------------
DFT GRID GENERATION
-------------------

General Integration Accuracy     IntAcc      ...  4.340
Radial Grid Type                 RadialGrid  ... Gauss-Chebyshev
Angular Grid (max. acc.)         AngularGrid ... Lebedev-110
Angular grid pruning method      GridPruning ... 3 (G Style)
Weight generation scheme         WeightScheme... Becke
Basis function cutoff            BFCut       ...    1.0000e-10
Integration weight cutoff        WCut        ...    1.0000e-14
Grids for H and He will be reduced by one unit

# of grid points (after initial pruning)     ...  41088 (   0.0 sec)
# of grid points (after weights+screening)   ...  37006 (   0.0 sec)
nearest neighbour list constructed           ...    0.0 sec
Grid point re-assignment to atoms done       ...    0.0 sec
Grid point division into batches done        ...    0.0 sec
Reduced shell lists constructed in    0.1 sec

Total number of grid points                  ...    37006
Total number of batches                      ...      594
Average number of points per batch           ...       62
Average number of grid points per atom       ...     1088
Average number of shells per batch           ...    72.73 (47.23%)
Average number of basis functions per batch  ...   142.88 (44.37%)
Average number of large shells per batch     ...    46.96 (64.57%)
Average number of large basis fcns per batch ...    95.19 (66.62%)
Maximum spatial batch extension              ...  15.72, 24.36, 13.26 au
Average spatial batch extension              ...   0.18,  0.20,  0.16 au

Time for grid setup =    0.148 sec

------------------------------
INITIAL GUESS: MODEL POTENTIAL
------------------------------
Loading Hartree-Fock densities                     ... done
Calculating cut-offs                               ... done
Setting up the integral package                    ... done
Initializing the effective Hamiltonian             ... done
Starting the Coulomb interaction                   ... done (   0.0 sec)
Reading the grid                                   ... done
Mapping shells                                     ... done
Starting the XC term evaluation                    ... done (   0.0 sec)
  promolecular density results
     # of electrons  =    134.005688329
     EX              =   -126.757153602
     EC              =     -4.620713943
     EX+EC           =   -131.377867545
Transforming the Hamiltonian                       ... done (   0.0 sec)
Diagonalizing the Hamiltonian                      ... done (   0.0 sec)
Back transforming the eigenvectors                 ... done (   0.0 sec)
Now organizing SCF variables                       ... done
                      ------------------
                      INITIAL GUESS DONE (   0.3 sec)
                      ------------------
--------------
SCF ITERATIONS
--------------
ITER       Energy         Delta-E        Max-DP      RMS-DP      [F,P]     Damp
               ***  Starting incremental Fock matrix formation  ***
  0  -1339.4202577419   0.000000000000 0.06443287  0.00160330  0.1625368 0.7000
  1  -1339.6149623658  -0.194704623957 0.04326449  0.00117304  0.0982596 0.7000
                               ***Turning on DIIS***
  2  -1339.7094612620  -0.094498896199 0.08632522  0.00219748  0.0508851 0.0000
  3  -1339.8515399010  -0.142078638956 0.04403201  0.00099121  0.0387946 0.0000
  4  -1339.8821591832  -0.030619282260 0.00762193  0.00020820  0.0080507 0.0000
                      *** Initiating the SOSCF procedure ***
                           *** Shutting down DIIS ***
                      *** Re-Reading the Fockian *** 
                      *** Removing any level shift *** 
ITER      Energy       Delta-E        Grad      Rot      Max-DP    RMS-DP
  5  -1339.88313697  -0.0009777911  0.001710  0.001710  0.003458  0.000103
               *** Restarting incremental Fock matrix formation ***
  6  -1339.88332533  -0.0001883603  0.001271  0.003344  0.002168  0.000063
  7  -1339.88338442  -0.0000590866  0.000748  0.004297  0.002722  0.000061
  8  -1339.88340020  -0.0000157773  0.000269  0.000539  0.000722  0.000020
  9  -1339.88340435  -0.0000041557  0.000149  0.000315  0.000283  0.000008
 10  -1339.88340480  -0.0000004490  0.000059  0.000196  0.000137  0.000003
                 **** Energy Check signals convergence ****
              ***Rediagonalizing the Fockian in SOSCF/NRSCF***

               *****************************************************
               *                     SUCCESS                       *
               *           SCF CONVERGED AFTER  11 CYCLES          *
               *****************************************************

Setting up the final grid:

General Integration Accuracy     IntAcc      ...  4.670
Radial Grid Type                 RadialGrid  ... Gauss-Chebyshev
Angular Grid (max. acc.)         AngularGrid ... Lebedev-302
Angular grid pruning method      GridPruning ... 3 (G Style)
Weight generation scheme         WeightScheme... Becke
Basis function cutoff            BFCut       ...    1.0000e-10
Integration weight cutoff        WCut        ...    1.0000e-14
Grids for H and He will be reduced by one unit

# of grid points (after initial pruning)     ... 161752 (   0.0 sec)
# of grid points (after weights+screening)   ... 142982 (   0.1 sec)
nearest neighbour list constructed           ...    0.0 sec
Grid point re-assignment to atoms done       ...    0.0 sec
Grid point division into batches done        ...    0.5 sec
Reduced shell lists constructed in    0.5 sec

Total number of grid points                  ...   142982
Total number of batches                      ...     2251
Average number of points per batch           ...       63
Average number of grid points per atom       ...     4205
Average number of shells per batch           ...    66.48 (43.17%)
Average number of basis functions per batch  ...   129.49 (40.22%)
Average number of large shells per batch     ...    41.06 (61.76%)
Average number of large basis fcns per batch ...    83.42 (64.42%)
Maximum spatial batch extension              ...  13.10, 15.55, 12.64 au
Average spatial batch extension              ...   0.11,  0.12,  0.11 au

Final grid set up in    0.8 sec
Final integration                            ... done (   0.3 sec)
Change in XC energy                          ...     0.008419820
Integrated number of electrons               ...   134.000186922
Previous integrated no of electrons          ...   134.012040553

----------------
TOTAL SCF ENERGY
----------------

Total Energy       :        -1339.87498519 Eh          -36459.85193 eV

Components:
Nuclear Repulsion  :         1275.63539790 Eh           34711.80389 eV
Electronic Energy  :        -2615.51038310 Eh          -71171.65582 eV
One Electron Energy:        -4367.99805290 Eh         -118859.26971 eV
Two Electron Energy:         1752.48766981 Eh           47687.61389 eV

Virial components:
Potential Energy   :        -2671.65430969 Eh          -72699.40973 eV
Kinetic Energy     :         1331.77932450 Eh           36239.55780 eV
Virial Ratio       :            2.00607883


DFT components:
N(Alpha)           :       67.000093461231 electrons
N(Beta)            :       67.000093461231 electrons
N(Total)           :      134.000186922462 electrons
E(XC)              :      -94.303463560332 Eh       
DFET-embed. en.    :        0.000000000000 Eh       

---------------
SCF CONVERGENCE
---------------

  Last Energy change         ...   -2.1056e-07  Tolerance :   1.0000e-06
  Last MAX-Density change    ...    2.6187e-05  Tolerance :   1.0000e-05
  Last RMS-Density change    ...    5.8629e-07  Tolerance :   1.0000e-06
  Last Orbital Gradient      ...    6.8681e-06  Tolerance :   5.0000e-05
  Last Orbital Rotation      ...    1.9240e-05  Tolerance :   5.0000e-05

             **** THE GBW FILE WAS UPDATED (config_9081.gbw) ****
             **** DENSITY FILE WAS UPDATED (config_9081.scfp) ****
             **** ENERGY FILE WAS UPDATED (config_9081.en.tmp) ****
             **** THE GBW FILE WAS UPDATED (config_9081.gbw) ****
             **** DENSITY FILE WAS UPDATED (config_9081.scfp) ****
----------------
ORBITAL ENERGIES
----------------

  NO   OCC          E(Eh)            E(eV) 
   0   2.0000     -88.969055     -2420.9711 
   1   2.0000     -88.960641     -2420.7421 
   2   2.0000     -10.321615      -280.8654 
   3   2.0000     -10.321156      -280.8529 
   4   2.0000     -10.311500      -280.5902 
   5   2.0000     -10.310233      -280.5557 
   6   2.0000     -10.300460      -280.2898 
   7   2.0000     -10.296987      -280.1953 
   8   2.0000     -10.295156      -280.1454 
   9   2.0000     -10.290981      -280.0318 
  10   2.0000     -10.288817      -279.9729 
  11   2.0000     -10.287134      -279.9271 
  12   2.0000     -10.287085      -279.9258 
  13   2.0000     -10.280956      -279.7590 
  14   2.0000     -10.279392      -279.7165 
  15   2.0000     -10.277818      -279.6736 
  16   2.0000      -8.083996      -219.9767 
  17   2.0000      -8.075915      -219.7568 
  18   2.0000      -6.042471      -164.4240 
  19   2.0000      -6.038493      -164.3157 
  20   2.0000      -6.034786      -164.2149 
  21   2.0000      -6.034307      -164.2018 
  22   2.0000      -6.030463      -164.0972 
  23   2.0000      -6.026656      -163.9936 
  24   2.0000      -1.008344       -27.4384 
  25   2.0000      -0.987388       -26.8682 
  26   2.0000      -0.914318       -24.8798 
  27   2.0000      -0.910361       -24.7722 
  28   2.0000      -0.868004       -23.6196 
  29   2.0000      -0.851953       -23.1828 
  30   2.0000      -0.849698       -23.1215 
  31   2.0000      -0.812873       -22.1194 
  32   2.0000      -0.783066       -21.3083 
  33   2.0000      -0.773678       -21.0528 
  34   2.0000      -0.705025       -19.1847 
  35   2.0000      -0.699031       -19.0216 
  36   2.0000      -0.694758       -18.9053 
  37   2.0000      -0.658127       -17.9085 
  38   2.0000      -0.641464       -17.4551 
  39   2.0000      -0.614366       -16.7177 
  40   2.0000      -0.600081       -16.3290 
  41   2.0000      -0.572131       -15.5685 
  42   2.0000      -0.565297       -15.3825 
  43   2.0000      -0.559107       -15.2141 
  44   2.0000      -0.536161       -14.5897 
  45   2.0000      -0.521549       -14.1921 
  46   2.0000      -0.518679       -14.1140 
  47   2.0000      -0.509933       -13.8760 
  48   2.0000      -0.500691       -13.6245 
  49   2.0000      -0.498143       -13.5552 
  50   2.0000      -0.494937       -13.4679 
  51   2.0000      -0.474870       -12.9219 
  52   2.0000      -0.471459       -12.8290 
  53   2.0000      -0.461381       -12.5548 
  54   2.0000      -0.460534       -12.5318 
  55   2.0000      -0.450890       -12.2693 
  56   2.0000      -0.447155       -12.1677 
  57   2.0000      -0.438908       -11.9433 
  58   2.0000      -0.432424       -11.7668 
  59   2.0000      -0.431581       -11.7439 
  60   2.0000      -0.420937       -11.4543 
  61   2.0000      -0.415725       -11.3125 
  62   2.0000      -0.400596       -10.9008 
  63   2.0000      -0.336863        -9.1665 
  64   2.0000      -0.330518        -8.9938 
  65   2.0000      -0.322407        -8.7731 
  66   2.0000      -0.309178        -8.4132 
  67   0.0000       0.049652         1.3511 
  68   0.0000       0.059594         1.6216 
  69   0.0000       0.119897         3.2626 
  70   0.0000       0.124094         3.3768 
  71   0.0000       0.134231         3.6526 
  72   0.0000       0.137339         3.7372 
  73   0.0000       0.149506         4.0683 
  74   0.0000       0.155340         4.2270 
  75   0.0000       0.162810         4.4303 
  76   0.0000       0.169314         4.6073 
  77   0.0000       0.175353         4.7716 
  78   0.0000       0.183009         4.9799 
  79   0.0000       0.194371         5.2891 
  80   0.0000       0.201211         5.4752 
  81   0.0000       0.202956         5.5227 
  82   0.0000       0.209551         5.7022 
  83   0.0000       0.218002         5.9321 
  84   0.0000       0.223308         6.0765 
  85   0.0000       0.224983         6.1221 
  86   0.0000       0.237222         6.4551 
  87   0.0000       0.237771         6.4701 
  88   0.0000       0.239705         6.5227 
  89   0.0000       0.251453         6.8424 
  90   0.0000       0.256076         6.9682 
  91   0.0000       0.262422         7.1409 
  92   0.0000       0.270014         7.3474 
  93   0.0000       0.308400         8.3920 
  94   0.0000       0.316022         8.5994 
  95   0.0000       0.322280         8.7697 
  96   0.0000       0.334130         9.0921 
  97   0.0000       0.336631         9.1602 
  98   0.0000       0.351768         9.5721 
  99   0.0000       0.371777        10.1166 
 100   0.0000       0.384595        10.4654 
 101   0.0000       0.398217        10.8360 
 102   0.0000       0.412000        11.2111 
 103   0.0000       0.421981        11.4827 
 104   0.0000       0.438548        11.9335 
 105   0.0000       0.456747        12.4287 
 106   0.0000       0.460662        12.5352 
 107   0.0000       0.483572        13.1587 
 108   0.0000       0.487988        13.2788 
 109   0.0000       0.501523        13.6471 
 110   0.0000       0.503706        13.7065 
 111   0.0000       0.506904        13.7936 
 112   0.0000       0.514906        14.0113 
 113   0.0000       0.526999        14.3404 
 114   0.0000       0.530671        14.4403 
 115   0.0000       0.537968        14.6388 
 116   0.0000       0.542507        14.7624 
 117   0.0000       0.555969        15.1287 
 118   0.0000       0.562001        15.2928 
 119   0.0000       0.575191        15.6517 
 120   0.0000       0.580125        15.7860 
 121   0.0000       0.597044        16.2464 
 122   0.0000       0.605429        16.4746 
 123   0.0000       0.612422        16.6648 
 124   0.0000       0.619431        16.8556 
 125   0.0000       0.628933        17.1141 
 126   0.0000       0.642177        17.4745 
 127   0.0000       0.643480        17.5100 
 128   0.0000       0.650352        17.6970 
 129   0.0000       0.659154        17.9365 
 130   0.0000       0.662179        18.0188 
 131   0.0000       0.673789        18.3347 
 132   0.0000       0.682834        18.5809 
 133   0.0000       0.695077        18.9140 
 134   0.0000       0.703152        19.1337 
 135   0.0000       0.714203        19.4344 
 136   0.0000       0.714804        19.4508 
 137   0.0000       0.728604        19.8263 
 138   0.0000       0.737969        20.0812 
 139   0.0000       0.745718        20.2920 
 140   0.0000       0.747583        20.3428 
 141   0.0000       0.749806        20.4033 
 142   0.0000       0.752475        20.4759 
 143   0.0000       0.761686        20.7265 
 144   0.0000       0.762810        20.7571 
 145   0.0000       0.765971        20.8431 
 146   0.0000       0.773337        21.0436 
 147   0.0000       0.776214        21.1218 
 148   0.0000       0.778876        21.1943 
 149   0.0000       0.782348        21.2888 
 150   0.0000       0.783735        21.3265 
 151   0.0000       0.789601        21.4861 
 152   0.0000       0.791704        21.5434 
 153   0.0000       0.792592        21.5675 
 154   0.0000       0.796688        21.6790 
 155   0.0000       0.806104        21.9352 
 156   0.0000       0.810668        22.0594 
 157   0.0000       0.812749        22.1160 
 158   0.0000       0.820651        22.3311 
 159   0.0000       0.825154        22.4536 
 160   0.0000       0.831980        22.6393 
 161   0.0000       0.835403        22.7325 
 162   0.0000       0.841091        22.8873 
 163   0.0000       0.852803        23.2059 
 164   0.0000       0.860587        23.4178 
 165   0.0000       0.864380        23.5210 
 166   0.0000       0.871651        23.7188 
 167   0.0000       0.889165        24.1954 
 168   0.0000       0.893036        24.3007 
 169   0.0000       0.899717        24.4826 
 170   0.0000       0.907188        24.6858 
 171   0.0000       0.914317        24.8798 
 172   0.0000       0.926421        25.2092 
 173   0.0000       0.956260        26.0211 
 174   0.0000       0.958890        26.0927 
 175   0.0000       0.969833        26.3905 
 176   0.0000       0.990131        26.9428 
 177   0.0000       0.994386        27.0586 
 178   0.0000       1.010575        27.4991 
 179   0.0000       1.033292        28.1173 
 180   0.0000       1.052390        28.6370 
 181   0.0000       1.059279        28.8244 
 182   0.0000       1.065059        28.9817 
 183   0.0000       1.088452        29.6183 
 184   0.0000       1.101434        29.9715 
 185   0.0000       1.136105        30.9150 
 186   0.0000       1.144006        31.1300 
 187   0.0000       1.148729        31.2585 
 188   0.0000       1.178210        32.0607 
 189   0.0000       1.200001        32.6537 
 190   0.0000       1.219577        33.1864 
 191   0.0000       1.230642        33.4875 
 192   0.0000       1.264709        34.4145 
 193   0.0000       1.274752        34.6878 
 194   0.0000       1.294315        35.2201 
 195   0.0000       1.303599        35.4727 
 196   0.0000       1.331534        36.2329 
 197   0.0000       1.339547        36.4509 
 198   0.0000       1.360567        37.0229 
 199   0.0000       1.394739        37.9528 
 200   0.0000       1.402399        38.1612 
 201   0.0000       1.403265        38.1848 
 202   0.0000       1.409707        38.3601 
 203   0.0000       1.435673        39.0667 
 204   0.0000       1.447775        39.3960 
 205   0.0000       1.451182        39.4887 
 206   0.0000       1.471340        40.0372 
 207   0.0000       1.506809        41.0024 
 208   0.0000       1.518056        41.3084 
 209   0.0000       1.533168        41.7196 
 210   0.0000       1.593006        43.3479 
 211   0.0000       1.605817        43.6965 
 212   0.0000       1.613364        43.9019 
 213   0.0000       1.636397        44.5286 
 214   0.0000       1.640742        44.6469 
 215   0.0000       1.647094        44.8197 
 216   0.0000       1.680117        45.7183 
 217   0.0000       1.681805        45.7643 
 218   0.0000       1.741320        47.3837 
 219   0.0000       1.782783        48.5120 
 220   0.0000       1.798479        48.9391 
 221   0.0000       1.804861        49.1128 
 222   0.0000       1.819184        49.5025 
 223   0.0000       1.827644        49.7327 
 224   0.0000       1.844690        50.1966 
 225   0.0000       1.845393        50.2157 
 226   0.0000       1.850948        50.3669 
 227   0.0000       1.856663        50.5224 
 228   0.0000       1.860995        50.6402 
 229   0.0000       1.867918        50.8286 
 230   0.0000       1.876759        51.0692 
 231   0.0000       1.878667        51.1211 
 232   0.0000       1.894606        51.5548 
 233   0.0000       1.904374        51.8206 
 234   0.0000       1.907026        51.8928 
 235   0.0000       1.912452        52.0405 
 236   0.0000       1.921790        52.2946 
 237   0.0000       1.933499        52.6132 
 238   0.0000       1.938315        52.7442 
 239   0.0000       1.940450        52.8023 
 240   0.0000       1.942608        52.8611 
 241   0.0000       1.949139        53.0388 
 242   0.0000       1.956890        53.2497 
 243   0.0000       1.968330        53.5610 
 244   0.0000       1.972325        53.6697 
 245   0.0000       1.981706        53.9250 
 246   0.0000       1.989902        54.1480 
 247   0.0000       2.006165        54.5905 
 248   0.0000       2.020213        54.9728 
 249   0.0000       2.030987        55.2660 
 250   0.0000       2.052700        55.8568 
 251   0.0000       2.059356        56.0379 
 252   0.0000       2.072541        56.3967 
 253   0.0000       2.083045        56.6825 
 254   0.0000       2.095825        57.0303 
 255   0.0000       2.101727        57.1909 
 256   0.0000       2.127208        57.8843 
 257   0.0000       2.133481        58.0550 
 258   0.0000       2.138947        58.2037 
 259   0.0000       2.173765        59.1511 
 260   0.0000       2.176369        59.2220 
 261   0.0000       2.189597        59.5820 
 262   0.0000       2.202307        59.9278 
 263   0.0000       2.206103        60.0311 
 264   0.0000       2.212130        60.1951 
 265   0.0000       2.254360        61.3443 
 266   0.0000       2.266230        61.6672 
 267   0.0000       2.289596        62.3031 
 268   0.0000       2.297864        62.5281 
 269   0.0000       2.316553        63.0366 
 270   0.0000       2.335559        63.5538 
 271   0.0000       2.358335        64.1735 
 272   0.0000       2.386199        64.9318 
 273   0.0000       2.403005        65.3891 
 274   0.0000       2.414747        65.7086 
 275   0.0000       2.429743        66.1167 
 276   0.0000       2.435292        66.2677 
 277   0.0000       2.446143        66.5629 
 278   0.0000       2.473089        67.2962 
 279   0.0000       2.485338        67.6295 
 280   0.0000       2.495008        67.8926 
 281   0.0000       2.506706        68.2109 
 282   0.0000       2.512859        68.3784 
 283   0.0000       2.529061        68.8193 
 284   0.0000       2.543415        69.2098 
 285   0.0000       2.550686        69.4077 
 286   0.0000       2.566072        69.8264 
 287   0.0000       2.599000        70.7224 
 288   0.0000       2.603082        70.8335 
 289   0.0000       2.624004        71.4028 
 290   0.0000       2.627726        71.5041 
 291   0.0000       2.651238        72.1439 
 292   0.0000       2.672657        72.7267 
 293   0.0000       2.688111        73.1472 
 294   0.0000       2.717977        73.9599 
 295   0.0000       2.748910        74.8016 
 296   0.0000       2.753974        74.9394 
 297   0.0000       2.775129        75.5151 
 298   0.0000       2.798541        76.1522 
 299   0.0000       2.818382        76.6921 
 300   0.0000       2.870245        78.1033 
 301   0.0000       2.882029        78.4240 
 302   0.0000       2.896358        78.8139 
 303   0.0000       2.909161        79.1623 
 304   0.0000       2.949224        80.2525 
 305   0.0000       2.963560        80.6426 
 306   0.0000       3.000163        81.6386 
 307   0.0000       3.012337        81.9699 
 308   0.0000       3.036310        82.6222 
 309   0.0000       3.044514        82.8454 
 310   0.0000       3.076765        83.7230 
 311   0.0000       3.088456        84.0412 
 312   0.0000       3.103474        84.4498 
 313   0.0000       3.120535        84.9141 
 314   0.0000       3.150056        85.7174 
 315   0.0000       3.159892        85.9850 
 316   0.0000       3.165308        86.1324 
 317   0.0000       3.203957        87.1841 
 318   0.0000       3.222650        87.6928 
 319   0.0000       3.252402        88.5024 
 320   0.0000       3.376318        91.8743 
 321   0.0000       3.468567        94.3845 

                    ********************************
                    * MULLIKEN POPULATION ANALYSIS *
                    ********************************

-----------------------
MULLIKEN ATOMIC CHARGES
-----------------------
   0 S :    0.133199
   1 C :   -0.105535
   2 C :   -0.090162
   3 C :    0.041061
   4 C :   -0.168881
   5 H :    0.015233
   6 C :    0.046785
   7 H :    0.033064
   8 H :    0.018716
   9 C :   -0.057593
  10 H :    0.035073
  11 H :    0.023253
  12 C :   -0.049394
  13 H :    0.034540
  14 H :    0.030183
  15 H :    0.030373
  16 S :    0.101458
  17 C :   -0.083813
  18 C :   -0.030645
  19 C :   -0.039275
  20 C :   -0.194126
  21 H :    0.022709
  22 C :    0.112095
  23 H :    0.009628
  24 H :    0.031727
  25 C :   -0.065731
  26 H :    0.015858
  27 H :    0.032452
  28 C :   -0.058473
  29 H :    0.037834
  30 H :    0.033520
  31 H :    0.035683
  32 H :    0.024556
  33 H :    0.044628
Sum of atomic charges:   -0.0000000

--------------------------------
MULLIKEN REDUCED ORBITAL CHARGES
--------------------------------
  0 S s       :     5.838774  s :     5.838774
      pz      :     3.037584  p :     9.916675
      px      :     3.313961
      py      :     3.565129
      dz2     :     0.031541  d :     0.111352
      dxz     :     0.022279
      dyz     :     0.023870
      dx2y2   :     0.015734
      dxy     :     0.017928
  1 C s       :     3.169187  s :     3.169187
      pz      :     0.956304  p :     2.902581
      px      :     0.886297
      py      :     1.059980
      dz2     :     0.008691  d :     0.033766
      dxz     :     0.007711
      dyz     :     0.004908
      dx2y2   :     0.006998
      dxy     :     0.005458
  2 C s       :     3.085533  s :     3.085533
      pz      :     0.997114  p :     2.961805
      px      :     0.974524
      py      :     0.990168
      dz2     :     0.008714  d :     0.042824
      dxz     :     0.011878
      dyz     :     0.008920
      dx2y2   :     0.007003
      dxy     :     0.006309
  3 C s       :     3.194769  s :     3.194769
      pz      :     0.843192  p :     2.729497
      px      :     0.925240
      py      :     0.961065
      dz2     :     0.009076  d :     0.034673
      dxz     :     0.007669
      dyz     :     0.005443
      dx2y2   :     0.006780
      dxy     :     0.005706
  4 C s       :     3.070228  s :     3.070228
      pz      :     0.939493  p :     3.052784
      px      :     1.044360
      py      :     1.068930
      dz2     :     0.013237  d :     0.045869
      dxz     :     0.009761
      dyz     :     0.009571
      dx2y2   :     0.007473
      dxy     :     0.005827
  5 H s       :     0.960994  s :     0.960994
      pz      :     0.013571  p :     0.023773
      px      :     0.004641
      py      :     0.005561
  6 C s       :     2.966596  s :     2.966596
      pz      :     1.026019  p :     2.950979
      px      :     0.930843
      py      :     0.994117
      dz2     :     0.005055  d :     0.035639
      dxz     :     0.003743
      dyz     :     0.009832
      dx2y2   :     0.007864
      dxy     :     0.009146
  7 H s       :     0.943936  s :     0.943936
      pz      :     0.009520  p :     0.023001
      px      :     0.003547
      py      :     0.009933
  8 H s       :     0.959530  s :     0.959530
      pz      :     0.011471  p :     0.021753
      px      :     0.003365
      py      :     0.006917
  9 C s       :     3.045959  s :     3.045959
      pz      :     1.018388  p :     2.974716
      px      :     0.939276
      py      :     1.017052
      dz2     :     0.005723  d :     0.036917
      dxz     :     0.004464
      dyz     :     0.010496
      dx2y2   :     0.006760
      dxy     :     0.009475
 10 H s       :     0.943836  s :     0.943836
      pz      :     0.010898  p :     0.021091
      px      :     0.003587
      py      :     0.006607
 11 H s       :     0.952801  s :     0.952801
      pz      :     0.010797  p :     0.023947
      px      :     0.004386
      py      :     0.008763
 12 C s       :     3.011573  s :     3.011573
      pz      :     1.012714  p :     3.009459
      px      :     0.964955
      py      :     1.031790
      dz2     :     0.005640  d :     0.028362
      dxz     :     0.002929
      dyz     :     0.007930
      dx2y2   :     0.004036
      dxy     :     0.007827
 13 H s       :     0.941825  s :     0.941825
      pz      :     0.010826  p :     0.023635
      px      :     0.004451
      py      :     0.008357
 14 H s       :     0.946708  s :     0.946708
      pz      :     0.005511  p :     0.023109
      px      :     0.010042
      py      :     0.007556
 15 H s       :     0.945565  s :     0.945565
      pz      :     0.011608  p :     0.024063
      px      :     0.005447
      py      :     0.007007
 16 S s       :     5.844598  s :     5.844598
      pz      :     3.119935  p :     9.947612
      px      :     3.275284
      py      :     3.552393
      dz2     :     0.028796  d :     0.106332
      dxz     :     0.015592
      dyz     :     0.026773
      dx2y2   :     0.017277
      dxy     :     0.017895
 17 C s       :     3.144780  s :     3.144780
      pz      :     0.884887  p :     2.902321
      px      :     0.988049
      py      :     1.029385
      dz2     :     0.007395  d :     0.036711
      dxz     :     0.009128
      dyz     :     0.007079
      dx2y2   :     0.008374
      dxy     :     0.004735
 18 C s       :     3.174401  s :     3.174401
      pz      :     0.928820  p :     2.819572
      px      :     0.955081
      py      :     0.935671
      dz2     :     0.007736  d :     0.036672
      dxz     :     0.007740
      dyz     :     0.007104
      dx2y2   :     0.007420
      dxy     :     0.006671
 19 C s       :     3.038610  s :     3.038610
      pz      :     0.965796  p :     2.956187
      px      :     1.005191
      py      :     0.985200
      dz2     :     0.009757  d :     0.044479
      dxz     :     0.011934
      dyz     :     0.007779
      dx2y2   :     0.008126
      dxy     :     0.006882
 20 C s       :     3.091173  s :     3.091173
      pz      :     1.041926  p :     3.058004
      px      :     0.945874
      py      :     1.070205
      dz2     :     0.009341  d :     0.044948
      dxz     :     0.009470
      dyz     :     0.008885
      dx2y2   :     0.010084
      dxy     :     0.007168
 21 H s       :     0.953861  s :     0.953861
      pz      :     0.010475  p :     0.023430
      px      :     0.004096
      py      :     0.008860
 22 C s       :     2.915201  s :     2.915201
      pz      :     1.021553  p :     2.937206
      px      :     0.979731
      py      :     0.935921
      dz2     :     0.004918  d :     0.035498
      dxz     :     0.008381
      dyz     :     0.006059
      dx2y2   :     0.007381
      dxy     :     0.008759
 23 H s       :     0.966192  s :     0.966192
      pz      :     0.011756  p :     0.024180
      px      :     0.007343
      py      :     0.005081
 24 H s       :     0.945315  s :     0.945315
      pz      :     0.010792  p :     0.022958
      px      :     0.007565
      py      :     0.004600
 25 C s       :     3.024430  s :     3.024430
      pz      :     1.022679  p :     3.002498
      px      :     1.019158
      py      :     0.960661
      dz2     :     0.008025  d :     0.038803
      dxz     :     0.006166
      dyz     :     0.007923
      dx2y2   :     0.009562
      dxy     :     0.007126
 26 H s       :     0.960428  s :     0.960428
      pz      :     0.012897  p :     0.023713
      px      :     0.005377
      py      :     0.005439
 27 H s       :     0.944929  s :     0.944929
      pz      :     0.007172  p :     0.022619
      px      :     0.011716
      py      :     0.003731
 28 C s       :     3.020915  s :     3.020915
      pz      :     1.023193  p :     3.008755
      px      :     0.986242
      py      :     0.999320
      dz2     :     0.010418  d :     0.028803
      dxz     :     0.003244
      dyz     :     0.002243
      dx2y2   :     0.008033
      dxy     :     0.004863
 29 H s       :     0.939232  s :     0.939232
      pz      :     0.005303  p :     0.022934
      px      :     0.004748
      py      :     0.012883
 30 H s       :     0.942657  s :     0.942657
      pz      :     0.013912  p :     0.023823
      px      :     0.004799
      py      :     0.005112
 31 H s       :     0.940461  s :     0.940461
      pz      :     0.005660  p :     0.023856
      px      :     0.013631
      py      :     0.004565
 32 H s       :     0.950313  s :     0.950313
      pz      :     0.014010  p :     0.025130
      px      :     0.005837
      py      :     0.005283
 33 H s       :     0.930563  s :     0.930563
      pz      :     0.009556  p :     0.024809
      px      :     0.010637
      py      :     0.004616


                     *******************************
                     * LOEWDIN POPULATION ANALYSIS *
                     *******************************

----------------------
LOEWDIN ATOMIC CHARGES
----------------------
   0 S :    0.423745
   1 C :   -0.194896
   2 C :   -0.060710
   3 C :   -0.055824
   4 C :   -0.214870
   5 H :    0.032643
   6 C :   -0.041073
   7 H :    0.032708
   8 H :    0.033550
   9 C :   -0.037450
  10 H :    0.028784
  11 H :    0.021978
  12 C :   -0.070663
  13 H :    0.024876
  14 H :    0.030682
  15 H :    0.025739
  16 S :    0.398609
  17 C :   -0.173354
  18 C :   -0.076829
  19 C :   -0.053465
  20 C :   -0.201011
  21 H :    0.035339
  22 C :   -0.029354
  23 H :    0.025332
  24 H :    0.035129
  25 C :   -0.048831
  26 H :    0.018084
  27 H :    0.032577
  28 C :   -0.065633
  29 H :    0.034768
  30 H :    0.026868
  31 H :    0.022185
  32 H :    0.018150
  33 H :    0.022218

-------------------------------
LOEWDIN REDUCED ORBITAL CHARGES
-------------------------------
  0 S s       :     5.494199  s :     5.494199
      pz      :     3.068207  p :     9.942855
      px      :     3.328867
      py      :     3.545780
      dz2     :     0.042485  d :     0.139202
      dxz     :     0.028077
      dyz     :     0.029867
      dx2y2   :     0.017812
      dxy     :     0.020960
  1 C s       :     2.921921  s :     2.921921
      pz      :     1.082343  p :     3.192419
      px      :     1.015370
      py      :     1.094706
      dz2     :     0.021677  d :     0.080556
      dxz     :     0.019654
      dyz     :     0.012325
      dx2y2   :     0.014290
      dxy     :     0.012610
  2 C s       :     2.865257  s :     2.865257
      pz      :     1.062821  p :     3.089406
      px      :     1.024645
      py      :     1.001940
      dz2     :     0.023103  d :     0.106047
      dxz     :     0.031739
      dyz     :     0.021788
      dx2y2   :     0.014514
      dxy     :     0.014902
  3 C s       :     2.872695  s :     2.872695
      pz      :     1.033139  p :     3.091772
      px      :     1.036710
      py      :     1.021924
      dz2     :     0.024593  d :     0.091357
      dxz     :     0.022847
      dyz     :     0.013420
      dx2y2   :     0.014560
      dxy     :     0.015937
  4 C s       :     2.903068  s :     2.903068
      pz      :     1.020005  p :     3.202665
      px      :     1.097122
      py      :     1.085539
      dz2     :     0.032265  d :     0.109137
      dxz     :     0.024223
      dyz     :     0.022295
      dx2y2   :     0.015364
      dxy     :     0.014991
  5 H s       :     0.898798  s :     0.898798
      pz      :     0.038114  p :     0.068559
      px      :     0.013989
      py      :     0.016455
  6 C s       :     2.832782  s :     2.832782
      pz      :     1.073245  p :     3.118863
      px      :     1.011585
      py      :     1.034033
      dz2     :     0.013229  d :     0.089428
      dxz     :     0.007887
      dyz     :     0.024984
      dx2y2   :     0.018585
      dxy     :     0.024742
  7 H s       :     0.900998  s :     0.900998
      pz      :     0.024993  p :     0.066294
      px      :     0.012464
      py      :     0.028837
  8 H s       :     0.904310  s :     0.904310
      pz      :     0.031081  p :     0.062140
      px      :     0.011134
      py      :     0.019924
  9 C s       :     2.830269  s :     2.830269
      pz      :     1.062898  p :     3.116455
      px      :     1.005103
      py      :     1.048454
      dz2     :     0.015555  d :     0.090726
      dxz     :     0.008836
      dyz     :     0.025795
      dx2y2   :     0.015328
      dxy     :     0.025212
 10 H s       :     0.910233  s :     0.910233
      pz      :     0.029844  p :     0.060983
      px      :     0.011687
      py      :     0.019452
 11 H s       :     0.905650  s :     0.905650
      pz      :     0.030787  p :     0.072372
      px      :     0.015300
      py      :     0.026285
 12 C s       :     2.835316  s :     2.835316
      pz      :     1.064077  p :     3.163015
      px      :     1.025663
      py      :     1.073275
      dz2     :     0.015692  d :     0.072331
      dxz     :     0.006178
      dyz     :     0.019940
      dx2y2   :     0.009815
      dxy     :     0.020706
 13 H s       :     0.908768  s :     0.908768
      pz      :     0.030009  p :     0.066356
      px      :     0.012920
      py      :     0.023427
 14 H s       :     0.906136  s :     0.906136
      pz      :     0.013080  p :     0.063182
      px      :     0.029217
      py      :     0.020885
 15 H s       :     0.906586  s :     0.906586
      pz      :     0.032389  p :     0.067675
      px      :     0.015766
      py      :     0.019520
 16 S s       :     5.510494  s :     5.510494
      pz      :     3.130164  p :     9.960042
      px      :     3.291113
      py      :     3.538765
      dz2     :     0.036699  d :     0.130855
      dxz     :     0.019212
      dyz     :     0.033421
      dx2y2   :     0.020555
      dxy     :     0.020969
 17 C s       :     2.918631  s :     2.918631
      pz      :     1.008843  p :     3.167543
      px      :     1.083707
      py      :     1.074992
      dz2     :     0.017728  d :     0.087181
      dxz     :     0.022296
      dyz     :     0.015964
      dx2y2   :     0.018036
      dxy     :     0.013156
 18 C s       :     2.857728  s :     2.857728
      pz      :     1.035885  p :     3.122230
      px      :     1.054401
      py      :     1.031943
      dz2     :     0.020439  d :     0.096872
      dxz     :     0.021609
      dyz     :     0.018287
      dx2y2   :     0.017404
      dxy     :     0.019133
 19 C s       :     2.856873  s :     2.856873
      pz      :     1.050528  p :     3.085263
      px      :     1.022806
      py      :     1.011930
      dz2     :     0.025733  d :     0.111328
      dxz     :     0.030113
      dyz     :     0.020944
      dx2y2   :     0.016748
      dxy     :     0.017789
 20 C s       :     2.902245  s :     2.902245
      pz      :     1.072085  p :     3.190463
      px      :     1.027490
      py      :     1.090887
      dz2     :     0.023076  d :     0.108303
      dxz     :     0.023306
      dyz     :     0.022191
      dx2y2   :     0.021891
      dxy     :     0.017839
 21 H s       :     0.897070  s :     0.897070
      pz      :     0.030025  p :     0.067591
      px      :     0.012829
      py      :     0.024737
 22 C s       :     2.821870  s :     2.821870
      pz      :     1.076481  p :     3.118272
      px      :     1.021927
      py      :     1.019864
      dz2     :     0.013481  d :     0.089212
      dxz     :     0.021329
      dyz     :     0.013239
      dx2y2   :     0.018829
      dxy     :     0.022334
 23 H s       :     0.903342  s :     0.903342
      pz      :     0.032153  p :     0.071326
      px      :     0.022943
      py      :     0.016230
 24 H s       :     0.898476  s :     0.898476
      pz      :     0.028963  p :     0.066395
      px      :     0.022390
      py      :     0.015042
 25 C s       :     2.819073  s :     2.819073
      pz      :     1.064775  p :     3.134168
      px      :     1.050630
      py      :     1.018762
      dz2     :     0.019666  d :     0.095590
      dxz     :     0.015923
      dyz     :     0.017798
      dx2y2   :     0.024482
      dxy     :     0.017721
 26 H s       :     0.911855  s :     0.911855
      pz      :     0.035993  p :     0.070061
      px      :     0.016129
      py      :     0.017940
 27 H s       :     0.901962  s :     0.901962
      pz      :     0.019323  p :     0.065461
      px      :     0.033167
      py      :     0.012971
 28 C s       :     2.835232  s :     2.835232
      pz      :     1.064794  p :     3.157227
      px      :     1.046027
      py      :     1.046407
      dz2     :     0.025705  d :     0.073174
      dxz     :     0.008225
      dyz     :     0.005696
      dx2y2   :     0.020256
      dxy     :     0.013291
 29 H s       :     0.902296  s :     0.902296
      pz      :     0.013346  p :     0.062936
      px      :     0.013514
      py      :     0.036076
 30 H s       :     0.907442  s :     0.907442
      pz      :     0.039099  p :     0.065690
      px      :     0.012801
      py      :     0.013790
 31 H s       :     0.909673  s :     0.909673
      pz      :     0.015218  p :     0.068143
      px      :     0.038981
      py      :     0.013944
 32 H s       :     0.901278  s :     0.901278
      pz      :     0.041388  p :     0.080572
      px      :     0.020660
      py      :     0.018524
 33 H s       :     0.900553  s :     0.900553
      pz      :     0.030671  p :     0.077228
      px      :     0.030288
      py      :     0.016269


                      *****************************
                      * MAYER POPULATION ANALYSIS *
                      *****************************

  NA   - Mulliken gross atomic population
  ZA   - Total nuclear charge
  QA   - Mulliken gross atomic charge
  VA   - Mayer's total valence
  BVA  - Mayer's bonded valence
  FA   - Mayer's free valence

  ATOM       NA         ZA         QA         VA         BVA        FA
  0 S     15.8668    16.0000     0.1332     2.4832     2.4832     0.0000
  1 C      6.1055     6.0000    -0.1055     3.8381     3.8381     0.0000
  2 C      6.0902     6.0000    -0.0902     4.0193     4.0193     0.0000
  3 C      5.9589     6.0000     0.0411     3.9387     3.9387    -0.0000
  4 C      6.1689     6.0000    -0.1689     3.8785     3.8785    -0.0000
  5 H      0.9848     1.0000     0.0152     1.0009     1.0009     0.0000
  6 C      5.9532     6.0000     0.0468     3.9256     3.9256    -0.0000
  7 H      0.9669     1.0000     0.0331     0.9868     0.9868    -0.0000
  8 H      0.9813     1.0000     0.0187     0.9904     0.9904    -0.0000
  9 C      6.0576     6.0000    -0.0576     4.0886     4.0886    -0.0000
 10 H      0.9649     1.0000     0.0351     0.9823     0.9823     0.0000
 11 H      0.9767     1.0000     0.0233     0.9786     0.9786     0.0000
 12 C      6.0494     6.0000    -0.0494     4.0015     4.0015     0.0000
 13 H      0.9655     1.0000     0.0345     0.9896     0.9896     0.0000
 14 H      0.9698     1.0000     0.0302     0.9835     0.9835    -0.0000
 15 H      0.9696     1.0000     0.0304     0.9879     0.9879    -0.0000
 16 S     15.8985    16.0000     0.1015     2.4701     2.4701     0.0000
 17 C      6.0838     6.0000    -0.0838     3.8414     3.8414    -0.0000
 18 C      6.0306     6.0000    -0.0306     3.9397     3.9397     0.0000
 19 C      6.0393     6.0000    -0.0393     4.0589     4.0589     0.0000
 20 C      6.1941     6.0000    -0.1941     3.9192     3.9192    -0.0000
 21 H      0.9773     1.0000     0.0227     0.9948     0.9948     0.0000
 22 C      5.8879     6.0000     0.1121     3.9395     3.9395    -0.0000
 23 H      0.9904     1.0000     0.0096     1.0006     1.0006     0.0000
 24 H      0.9683     1.0000     0.0317     0.9822     0.9822    -0.0000
 25 C      6.0657     6.0000    -0.0657     4.0857     4.0857     0.0000
 26 H      0.9841     1.0000     0.0159     0.9787     0.9787    -0.0000
 27 H      0.9675     1.0000     0.0325     0.9808     0.9808     0.0000
 28 C      6.0585     6.0000    -0.0585     4.0218     4.0218    -0.0000
 29 H      0.9622     1.0000     0.0378     0.9859     0.9859    -0.0000
 30 H      0.9665     1.0000     0.0335     0.9842     0.9842     0.0000
 31 H      0.9643     1.0000     0.0357     0.9880     0.9880    -0.0000
 32 H      0.9754     1.0000     0.0246     1.0107     1.0107    -0.0000
 33 H      0.9554     1.0000     0.0446     0.9971     0.9971    -0.0000

  Mayer bond orders larger than 0.100000
B(  0-S ,  1-C ) :   1.1426 B(  0-S ,  4-C ) :   1.1531 B(  1-C ,  2-C ) :   1.6143 
B(  1-C , 32-H ) :   0.9704 B(  2-C ,  3-C ) :   1.2411 B(  2-C ,  6-C ) :   1.0248 
B(  3-C ,  4-C ) :   1.5968 B(  3-C ,  5-H ) :   0.9919 B(  4-C , 20-C ) :   0.9846 
B(  6-C ,  7-H ) :   0.9357 B(  6-C ,  8-H ) :   0.9392 B(  6-C ,  9-C ) :   1.0594 
B(  9-C , 10-H ) :   0.9564 B(  9-C , 11-H ) :   0.9530 B(  9-C , 12-C ) :   1.0915 
B( 12-C , 13-H ) :   0.9749 B( 12-C , 14-H ) :   0.9717 B( 12-C , 15-H ) :   0.9720 
B( 16-S , 17-C ) :   1.1591 B( 16-S , 20-C ) :   1.1379 B( 17-C , 18-C ) :   1.6136 
B( 17-C , 33-H ) :   0.9713 B( 18-C , 19-C ) :   1.2364 B( 18-C , 21-H ) :   0.9920 
B( 19-C , 20-C ) :   1.6482 B( 19-C , 22-C ) :   1.0266 B( 22-C , 23-H ) :   0.9356 
B( 22-C , 24-H ) :   0.9301 B( 22-C , 25-C ) :   1.0541 B( 25-C , 26-H ) :   0.9502 
B( 25-C , 27-H ) :   0.9547 B( 25-C , 28-C ) :   1.0969 B( 28-C , 29-H ) :   0.9726 
B( 28-C , 30-H ) :   0.9733 B( 28-C , 31-H ) :   0.9759 

-------
TIMINGS
-------

Total SCF time: 0 days 0 hours 0 min 19 sec 

Total time                  ....      19.541 sec
Sum of individual times     ....      18.667 sec  ( 95.5%)

Fock matrix formation       ....      17.017 sec  ( 87.1%)
  XC integration            ....       1.492 sec  (  8.8% of F)
    Basis function eval.    ....       0.142 sec  (  9.5% of XC)
    Density eval.           ....       0.099 sec  (  6.6% of XC)
    XC-Functional eval.     ....       0.112 sec  (  7.5% of XC)
    XC-Potential eval.      ....       0.115 sec  (  7.7% of XC)
Diagonalization             ....       0.136 sec  (  0.7%)
Density matrix formation    ....       0.025 sec  (  0.1%)
Population analysis         ....       0.055 sec  (  0.3%)
Initial guess               ....       0.165 sec  (  0.8%)
Orbital Transformation      ....       0.000 sec  (  0.0%)
Orbital Orthonormalization  ....       0.000 sec  (  0.0%)
DIIS solution               ....       0.159 sec  (  0.8%)
SOSCF solution              ....       0.128 sec  (  0.7%)
Grid generation             ....       0.981 sec  (  5.0%)


-------------------------------------------------------------------------------
                          DFT DISPERSION CORRECTION                            
                                                                               
                              DFTD3 V3.1  Rev 1                                
                              USING zero damping                               
-------------------------------------------------------------------------------
The omegaB97X-D3 functional is recognized. Fit by Chai et al.
Active option DFTDOPT                   ...         3   

molecular C6(AA) [au] = 14160.961119 


            DFT-D V3
 parameters
 s6 scaling factor         :     1.0000 
 rs6 scaling factor        :     1.2810 
 s8 scaling factor         :     1.0000 
 rs8 scaling factor        :     1.0940 
 Damping factor alpha6     :    14.0000 
 Damping factor alpha8     :    16.0000 
 ad hoc parameters k1-k3   :    16.0000     1.3333    -4.0000 

 Edisp/kcal,au: -8.864108052353  -0.014125853829 
 E6   /kcal   :  -3.998892281 
 E8   /kcal   :  -4.865215771 
 % E8         :  54.886692970 

-------------------------   ----------------
Dispersion correction           -0.014125854
-------------------------   ----------------


-------------------------   --------------------
FINAL SINGLE POINT ENERGY     -1339.889111047541
-------------------------   --------------------


                            ***************************************
                            *     ORCA property calculations      *
                            ***************************************

                                    ---------------------
                                    Active property flags
                                    ---------------------
   (+) Dipole Moment


------------------------------------------------------------------------------
                       ORCA ELECTRIC PROPERTIES CALCULATION
------------------------------------------------------------------------------

Dipole Moment Calculation                       ... on
Quadrupole Moment Calculation                   ... off
Polarizability Calculation                      ... off
GBWName                                         ... config_9081.gbw
Electron density file                           ... config_9081.scfp
The origin for moment calculation is the CENTER OF MASS  = (38.001434, -40.223184 -222.982774)

-------------
DIPOLE MOMENT
-------------
                                X             Y             Z
Electronic contribution:    -27.60617      -7.10922       0.05309
Nuclear contribution   :     28.24510       7.27003       0.17173
                        -----------------------------------------
Total Dipole Moment    :      0.63894       0.16081       0.22482
                        -----------------------------------------
Magnitude (a.u.)       :      0.69617
Magnitude (Debye)      :      1.76951



--------------------
Rotational spectrum 
--------------------
 
Rotational constants in cm-1:     0.017770     0.008181     0.006864 
Rotational constants in MHz :   532.730654   245.275188   205.771542 

 Dipole components along the rotational axes: 
x,y,z [a.u.] :    -0.255205    -0.554782     0.334264 
x,y,z [Debye]:    -0.648681    -1.410145     0.849633 

 

Timings for individual modules:

Sum of individual times         ...       20.721 sec (=   0.345 min)
GTO integral calculation        ...        0.802 sec (=   0.013 min)   3.9 %
SCF iterations                  ...       19.919 sec (=   0.332 min)  96.1 %
                             ****ORCA TERMINATED NORMALLY****
TOTAL RUN TIME: 0 days 0 hours 0 minutes 21 seconds 443 msec
