
                                 *****************
                                 * O   R   C   A *
                                 *****************

           --- An Ab Initio, DFT and Semiempirical electronic structure package ---

                  #######################################################
                  #                        -***-                        #
                  #          Department of theory and spectroscopy      #
                  #               Directorship: Frank Neese             #
                  #        Max Planck Institute fuer Kohlenforschung    #
                  #                Kaiser Wilhelm Platz 1               #
                  #                 D-45470 Muelheim/Ruhr               #
                  #                      Germany                        #
                  #                                                     #
                  #                  All rights reserved                #
                  #                        -***-                        #
                  #######################################################


                         Program Version 4.2.1 -  RELEASE  -


 With contributions from (in alphabetic order):
   Daniel Aravena         : Magnetic Suceptibility
   Michael Atanasov       : Ab Initio Ligand Field Theory (pilot matlab implementation)
   Alexander A. Auer      : GIAO ZORA, VPT2
   Ute Becker             : Parallelization
   Giovanni Bistoni       : ED, misc. LED, open-shell LED, HFLD
   Martin Brehm           : Molecular dynamics
   Dmytro Bykov           : SCF Hessian
   Vijay G. Chilkuri      : MRCI spin determinant printing, contributions to CSF-ICE
   Dipayan Datta          : RHF DLPNO-CCSD density
   Achintya Kumar Dutta   : EOM-CC, STEOM-CC
   Dmitry Ganyushin       : Spin-Orbit,Spin-Spin,Magnetic field MRCI
   Miquel Garcia          : C-PCM Hessian, Gaussian charge scheme
   Yang Guo               : DLPNO-NEVPT2, CIM, IAO-localization
   Andreas Hansen         : Spin unrestricted coupled pair/coupled cluster methods
   Benjamin Helmich-Paris : CASSCF linear response (MC-RPA)
   Lee Huntington         : MR-EOM, pCC
   Robert Izsak           : Overlap fitted RIJCOSX, COSX-SCS-MP3, EOM
   Christian Kollmar      : KDIIS, OOCD, Brueckner-CCSD(T), CCSD density
   Simone Kossmann        : Meta GGA functionals, TD-DFT gradient, OOMP2, MP2 Hessian
   Martin Krupicka        : AUTO-CI
   Lucas Lang             : DCDCAS
   Dagmar Lenk            : GEPOL surface, SMD
   Dimitrios Liakos       : Extrapolation schemes; Compound Job, initial MDCI parallelization
   Dimitrios Manganas     : Further ROCIS development; embedding schemes
   Dimitrios Pantazis     : SARC Basis sets
   Taras Petrenko         : DFT Hessian,TD-DFT gradient, ASA, ECA, R-Raman, ABS, FL, XAS/XES, NRVS
   Peter Pinski           : DLPNO-MP2, DLPNO-MP2 Gradient
   Christoph Reimann      : Effective Core Potentials
   Marius Retegan         : Local ZFS, SOC
   Christoph Riplinger    : Optimizer, TS searches, QM/MM, DLPNO-CCSD(T), (RO)-DLPNO pert. Triples
   Tobias Risthaus        : Range-separated hybrids, TD-DFT gradient, RPA, STAB
   Michael Roemelt        : Original ROCIS implementation
   Masaaki Saitow         : Open-shell DLPNO-CCSD energy and density
   Barbara Sandhoefer     : DKH picture change effects
   Avijit Sen             : IP-ROCIS
   Kantharuban Sivalingam : CASSCF convergence, NEVPT2, FIC-MRCI
   Bernardo de Souza      : ESD, SOC TD-DFT
   Georgi Stoychev        : AutoAux, RI-MP2 NMR
   Willem Van den Heuvel  : Paramagnetic NMR
   Boris Wezisla          : Elementary symmetry handling
   Frank Wennmohs         : Technical directorship


 We gratefully acknowledge several colleagues who have allowed us to
 interface, adapt or use parts of their codes:
   Stefan Grimme, W. Hujo, H. Kruse,             : VdW corrections, initial TS optimization,
                  C. Bannwarth                     DFT functionals, gCP, sTDA/sTD-DF
   Ed Valeev, F. Pavosevic, A. Kumar             : LibInt (2-el integral package), F12 methods
   Garnet Chan, S. Sharma, J. Yang, R. Olivares  : DMRG
   Ulf Ekstrom                                   : XCFun DFT Library
   Mihaly Kallay                                 : mrcc  (arbitrary order and MRCC methods)
   Andreas Klamt, Michael Diedenhofen            : otool_cosmo (COSMO solvation model)
   Jiri Pittner, Ondrej Demel                    : Mk-CCSD
   Frank Weinhold                                : gennbo (NPA and NBO analysis)
   Christopher J. Cramer and Donald G. Truhlar   : smd solvation model
   Lars Goerigk                                  : TD-DFT with DH, B97 family of functionals
   V. Asgeirsson, H. Jonsson                     : NEB implementation
   FAccTs GmbH                                   : IRC, NEB, NEB-TS, Multilevel, MM, QM/MM, CI optimization
   S Lehtola, MJT Oliveira, MAL Marques          : LibXC Library


 Your calculation uses the libint2 library for the computation of 2-el integrals
 For citations please refer to: http://libint.valeyev.net

 Your ORCA version has been built with support for libXC version: 4.2.3
 For citations please refer to: https://tddft.org/programs/libxc/

 This ORCA versions uses:
   CBLAS   interface :  Fast vector & matrix operations
   LAPACKE interface :  Fast linear algebra routines
   SCALAPACK package :  Parallel linear algebra routines


Your calculation utilizes the atom-pairwise dispersion correction
with the zero-damping scheme (D30)
Cite in your paper:
S.Grimme, J.Antony, S.Ehrlich and H.Krieg, J.Chem.Phys., 132, (2010), 154104 
   

XCFun DFT library Copyright 2009-2010 Ulf Ekstrom and contributors.
See http://admol.org/xcfun for more information. This is free soft-
ware; see the source code for copying conditions. There is ABSOLUTELY
NO WARRANTY; not even for MERCHANTABILITY or FITNESS FOR A PARTICULAR
PURPOSE. For details see the documentation. Scientific users of this 
library should cite U. Ekstrom, L. Visscher, R. Bast, A. J. Thorvald-
sen and K. Ruud; J.Chem.Theor.Comp. 2010, DOI: 10.1021/ct100117s
XCFun Version 0.99 
----- Orbital basis set information -----
Your calculation utilizes the basis: def2-SVP
   F. Weigend and R. Ahlrichs, Phys. Chem. Chem. Phys. 7, 3297 (2005).

================================================================================
                                        WARNINGS
                       Please study these warnings very carefully!
================================================================================


INFO   : the flag for use of LIBINT has been found!

================================================================================
                                       INPUT FILE
================================================================================
NAME = config_7125.inp
|  1> ! wB97X-D3 SP def2-SVP
|  2> %pal
|  3> nprocs 24
|  4> end
|  5> 
|  6> * xyz 0 1
|  7> S 	 -71.504 	 18.6435 	 -73.2794 	 
|  8> C 	 -69.9778 	 18.3321 	 -74.0389 	 
|  9> C 	 -69.0267 	 17.9846 	 -73.1369 	 
| 10> C 	 -69.5803 	 17.862 	 -71.7931 	 
| 11> C 	 -70.962 	 18.1354 	 -71.73 	 
| 12> H 	 -69.0175 	 17.2566 	 -71.0615 	 
| 13> C 	 -67.6977 	 17.4628 	 -73.4814 	 
| 14> H 	 -67.1046 	 17.7418 	 -72.6587 	 
| 15> H 	 -67.2875 	 18.0092 	 -74.4069 	 
| 16> C 	 -67.5815 	 16.0287 	 -73.7156 	 
| 17> H 	 -67.7309 	 15.5127 	 -72.7509 	 
| 18> H 	 -68.2832 	 15.5888 	 -74.4414 	 
| 19> C 	 -66.0975 	 15.6389 	 -74.0892 	 
| 20> H 	 -65.8423 	 15.9655 	 -75.1237 	 
| 21> H 	 -65.4309 	 16.2623 	 -73.4915 	 
| 22> H 	 -65.9683 	 14.5895 	 -74.0844 	 
| 23> S 	 -72.8598 	 19.4287 	 -70.4263 	 
| 24> C 	 -73.3191 	 19.0501 	 -68.7593 	 
| 25> C 	 -72.6498 	 17.9903 	 -68.309 	 
| 26> C 	 -71.7812 	 17.5101 	 -69.322 	 
| 27> C 	 -71.7379 	 18.1621 	 -70.5124 	 
| 28> H 	 -72.7872 	 17.5572 	 -67.3786 	 
| 29> C 	 -70.9989 	 16.2717 	 -68.9655 	 
| 30> H 	 -70.6201 	 15.7722 	 -69.8428 	 
| 31> H 	 -71.7981 	 15.577 	 -68.5148 	 
| 32> C 	 -69.8917 	 16.3095 	 -67.9492 	 
| 33> H 	 -69.5397 	 15.2825 	 -67.7408 	 
| 34> H 	 -70.3281 	 16.7943 	 -67.0149 	 
| 35> C 	 -68.7107 	 17.1192 	 -68.368 	 
| 36> H 	 -67.9048 	 16.4921 	 -68.6768 	 
| 37> H 	 -68.5129 	 17.6559 	 -67.5045 	 
| 38> H 	 -69.0302 	 17.9053 	 -69.1076 	 
| 39> H 	 -69.787 	 18.1693 	 -75.0995 	 
| 40> H 	 -74.1532 	 19.5013 	 -68.2362 	 
| 41> *
| 42> 
| 43>                          ****END OF INPUT****
================================================================================

                       ****************************
                       * Single Point Calculation *
                       ****************************

---------------------------------
CARTESIAN COORDINATES (ANGSTROEM)
---------------------------------
  S    -71.504000   18.643500  -73.279400
  C    -69.977800   18.332100  -74.038900
  C    -69.026700   17.984600  -73.136900
  C    -69.580300   17.862000  -71.793100
  C    -70.962000   18.135400  -71.730000
  H    -69.017500   17.256600  -71.061500
  C    -67.697700   17.462800  -73.481400
  H    -67.104600   17.741800  -72.658700
  H    -67.287500   18.009200  -74.406900
  C    -67.581500   16.028700  -73.715600
  H    -67.730900   15.512700  -72.750900
  H    -68.283200   15.588800  -74.441400
  C    -66.097500   15.638900  -74.089200
  H    -65.842300   15.965500  -75.123700
  H    -65.430900   16.262300  -73.491500
  H    -65.968300   14.589500  -74.084400
  S    -72.859800   19.428700  -70.426300
  C    -73.319100   19.050100  -68.759300
  C    -72.649800   17.990300  -68.309000
  C    -71.781200   17.510100  -69.322000
  C    -71.737900   18.162100  -70.512400
  H    -72.787200   17.557200  -67.378600
  C    -70.998900   16.271700  -68.965500
  H    -70.620100   15.772200  -69.842800
  H    -71.798100   15.577000  -68.514800
  C    -69.891700   16.309500  -67.949200
  H    -69.539700   15.282500  -67.740800
  H    -70.328100   16.794300  -67.014900
  C    -68.710700   17.119200  -68.368000
  H    -67.904800   16.492100  -68.676800
  H    -68.512900   17.655900  -67.504500
  H    -69.030200   17.905300  -69.107600
  H    -69.787000   18.169300  -75.099500
  H    -74.153200   19.501300  -68.236200

----------------------------
CARTESIAN COORDINATES (A.U.)
----------------------------
  NO LB      ZA    FRAG     MASS         X           Y           Z
   0 S    16.0000    0    32.060  -135.122977   35.231109  -138.477997
   1 C     6.0000    0    12.011  -132.238877   34.642648  -139.913244
   2 C     6.0000    0    12.011  -130.441559   33.985969  -138.208711
   3 C     6.0000    0    12.011  -131.487711   33.754288  -135.669297
   4 C     6.0000    0    12.011  -134.098746   34.270939  -135.550056
   5 H     1.0000    0     1.008  -130.424173   32.610248  -134.286774
   6 C     6.0000    0    12.011  -127.930113   32.999910  -138.859722
   7 H     1.0000    0     1.008  -126.809316   33.527143  -137.305044
   8 H     1.0000    0     1.008  -127.154947   34.032456  -140.608663
   9 C     6.0000    0    12.011  -127.710527   30.289853  -139.302296
  10 H     1.0000    0     1.008  -127.992852   29.314755  -137.479277
  11 H     1.0000    0     1.008  -129.036548   29.458563  -140.673859
  12 C     6.0000    0    12.011  -124.906173   29.553238  -140.008297
  13 H     1.0000    0     1.008  -124.423915   30.170423  -141.963219
  14 H     1.0000    0     1.008  -123.646482   30.731293  -138.878808
  15 H     1.0000    0     1.008  -124.662021   27.570159  -139.999227
  16 S    16.0000    0    32.060  -137.685068   36.714922  -133.086420
  17 C     6.0000    0    12.011  -138.553019   35.999472  -129.936246
  18 C     6.0000    0    12.011  -137.288226   33.996740  -129.085302
  19 C     6.0000    0    12.011  -135.646810   33.089294  -130.999595
  20 C     6.0000    0    12.011  -135.564984   34.321395  -133.249125
  21 H     1.0000    0     1.008  -137.547874   33.178300  -127.327101
  22 C     6.0000    0    12.011  -134.168477   30.749057  -130.325908
  23 H     1.0000    0     1.008  -133.452649   29.805139  -131.983764
  24 H     1.0000    0     1.008  -135.678746   29.436264  -129.474208
  25 C     6.0000    0    12.011  -132.076172   30.820488  -128.405379
  26 H     1.0000    0     1.008  -131.410988   28.879740  -128.011560
  27 H     1.0000    0     1.008  -132.900849   31.736628  -126.639808
  28 C     6.0000    0    12.011  -129.844405   32.350600  -129.196796
  29 H     1.0000    0     1.008  -128.321475   31.165552  -129.780344
  30 H     1.0000    0     1.008  -129.470618   33.364816  -127.565018
  31 H     1.0000    0     1.008  -130.448173   33.836113  -130.594438
  32 H     1.0000    0     1.008  -131.878318   34.335001  -141.917488
  33 H     1.0000    0     1.008  -140.129240   36.852116  -128.947730

--------------------------------
INTERNAL COORDINATES (ANGSTROEM)
--------------------------------
 S      0   0   0     0.000000000000     0.00000000     0.00000000
 C      1   0   0     1.732944502862     0.00000000     0.00000000
 C      2   1   0     1.356079444575   111.85234466     0.00000000
 C      3   2   1     1.458527394326   111.60237758     4.73672572
 C      4   3   2     1.409902145541   113.38472169   359.68628812
 H      4   3   2     1.103853051814   117.59491873   158.83875217
 C      3   2   1     1.468739762518   124.72619583   170.11768268
 H      7   3   2     1.051876371063   103.44547297   153.48358306
 H      7   3   2     1.150377003421   110.03610115    38.78057618
 C      7   3   2     1.457736220995   117.34338209   274.75461992
 H     10   7   3     1.104184065272   107.97402736   291.02043078
 H     10   7   3     1.101217753217   116.62093679    52.27569506
 C     10   7   3     1.579169718555   110.83965714   179.34955378
 H     13  10   7     1.114443740168   111.25154174   286.67042812
 H     13  10   7     1.090975897992   107.66974417    37.18456101
 H     13  10   7     1.057334403110   111.02297148   169.50984200
 S      5   4   3     2.640814915892   145.21792957   226.49488488
 C     17   5   4     1.770080068810   123.13740131   293.96407171
 C     18  17   5     1.331881608853   110.98998200   355.83068217
 C     19  18  17     1.418177351392   109.61610840     0.03098570
 C     20  19  18     1.357951048455   118.88921123     1.07535582
 H     19  18  17     1.035421909175   124.74682898   183.16722752
 C     20  19  18     1.507554343962   115.28128653   182.39607378
 H     23  20  19     1.078260163411   111.74257024   161.18093287
 H     23  20  19     1.150851519528   103.18625200    47.20682293
 C     23  20  19     1.503391622299   121.42436468   289.92643843
 H     26  23  20     1.105469836766   109.79061456   172.70946164
 H     26  23  20     1.139470267273   106.43492910    52.18136865
 C     26  23  20     1.491900978618   114.00864507   293.71993118
 H     29  26  23     1.066811445383   111.11419339   256.47282785
 H     29  26  23     1.035762511390   101.44172287   135.31226627
 H     29  26  23     1.125629432806   109.80247286    25.84595470
 H      2   1   3     1.089853586497   127.41133069   165.08005112
 H     18  17   5     1.083022557475   124.44431412   186.01145850

---------------------------
INTERNAL COORDINATES (A.U.)
---------------------------
 S      0   0   0     0.000000000000     0.00000000     0.00000000
 C      1   0   0     3.274790515694     0.00000000     0.00000000
 C      2   1   0     2.562618766088   111.85234466     0.00000000
 C      3   2   1     2.756217334098   111.60237758     4.73672572
 C      4   3   2     2.664328930700   113.38472169   359.68628812
 H      4   3   2     2.085979960022   117.59491873   158.83875217
 C      3   2   1     2.775515913159   124.72619583   170.11768268
 H      7   3   2     1.987758268051   103.44547297   153.48358306
 H      7   3   2     2.173897487227   110.03610115    38.78057618
 C      7   3   2     2.754722233177   117.34338209   274.75461992
 H     10   7   3     2.086605484803   107.97402736   291.02043078
 H     10   7   3     2.080999967392   116.62093679    52.27569506
 C     10   7   3     2.984198287050   110.83965714   179.34955378
 H     13  10   7     2.105993460581   111.25154174   286.67042812
 H     13  10   7     2.061645665914   107.66974417    37.18456101
 H     13  10   7     1.998072453851   111.02297148   169.50984200
 S      5   4   3     4.990416961411   145.21792957   226.49488488
 C     17   5   4     3.344966565164   123.13740131   293.96407171
 C     18  17   5     2.516891483538   110.98998200   355.83068217
 C     19  18  17     2.679966803460   109.61610840     0.03098570
 C     20  19  18     2.566155584851   118.88921123     1.07535582
 H     19  18  17     1.956663841403   124.74682898   183.16722752
 C     20  19  18     2.848864842092   115.28128653   182.39607378
 H     23  20  19     2.037616409965   111.74257024   161.18093287
 H     23  20  19     2.174794192715   103.18625200    47.20682293
 C     23  20  19     2.840998438177   121.42436468   289.92643843
 H     26  23  20     2.089035240799   109.79061456   172.70946164
 H     26  23  20     2.153286742893   106.43492910    52.18136865
 C     26  23  20     2.819284268516   114.00864507   293.71993118
 H     29  26  23     2.015981468306   111.11419339   256.47282785
 H     29  26  23     1.957307486309   101.44172287   135.31226627
 H     29  26  23     2.127131356285   109.80247286    25.84595470
 H      2   1   3     2.059524804551   127.41133069   165.08005112
 H     18  17   5     2.046616030487   124.44431412   186.01145850

---------------------
BASIS SET INFORMATION
---------------------
There are 3 groups of distinct atoms

 Group   1 Type S   : 10s7p1d contracted to 4s3p1d pattern {5311/511/1}
 Group   2 Type C   : 7s4p1d contracted to 3s2p1d pattern {511/31/1}
 Group   3 Type H   : 4s1p contracted to 2s1p pattern {31/1}

Atom   0S    basis set group =>   1
Atom   1C    basis set group =>   2
Atom   2C    basis set group =>   2
Atom   3C    basis set group =>   2
Atom   4C    basis set group =>   2
Atom   5H    basis set group =>   3
Atom   6C    basis set group =>   2
Atom   7H    basis set group =>   3
Atom   8H    basis set group =>   3
Atom   9C    basis set group =>   2
Atom  10H    basis set group =>   3
Atom  11H    basis set group =>   3
Atom  12C    basis set group =>   2
Atom  13H    basis set group =>   3
Atom  14H    basis set group =>   3
Atom  15H    basis set group =>   3
Atom  16S    basis set group =>   1
Atom  17C    basis set group =>   2
Atom  18C    basis set group =>   2
Atom  19C    basis set group =>   2
Atom  20C    basis set group =>   2
Atom  21H    basis set group =>   3
Atom  22C    basis set group =>   2
Atom  23H    basis set group =>   3
Atom  24H    basis set group =>   3
Atom  25C    basis set group =>   2
Atom  26H    basis set group =>   3
Atom  27H    basis set group =>   3
Atom  28C    basis set group =>   2
Atom  29H    basis set group =>   3
Atom  30H    basis set group =>   3
Atom  31H    basis set group =>   3
Atom  32H    basis set group =>   3
Atom  33H    basis set group =>   3


           ************************************************************
           *        Program running with 24 parallel MPI-processes    *
           *              working on a common directory               *
           ************************************************************
------------------------------------------------------------------------------
                           ORCA GTO INTEGRAL CALCULATION
------------------------------------------------------------------------------

                         BASIS SET STATISTICS AND STARTUP INFO

 # of primitive gaussian shells          ...  294
 # of primitive gaussian functions       ...  534
 # of contracted shells                  ...  154
 # of contracted basis functions         ...  322
 Highest angular momentum                ...    2
 Maximum contraction depth               ...    5
 Integral package used                   ... LIBINT
 Integral threshhold            Thresh   ...  1.000e-10
 Primitive cut-off              TCut     ...  1.000e-11


------------------------------ INTEGRAL EVALUATION ----------------------------


 * One electron integrals 
 Pre-screening matrix                    ... done
 Shell pair data                         ... done (   0.003 sec)



           ************************************************************
           *        Program running with 24 parallel MPI-processes    *
           *              working on a common directory               *
           ************************************************************
-------------------------------------------------------------------------------
                                 ORCA SCF
-------------------------------------------------------------------------------

------------
SCF SETTINGS
------------
Hamiltonian:
 Density Functional     Method          .... DFT(GTOs)
 Exchange Functional    Exchange        .... WB97X-D3
 Correlation Functional Correlation     .... WB97X-D3
 Gradients option       PostSCFGGA      .... off
 Hybrid DFT is turned on
   Fraction HF Exchange ScalHFX         ....  0.195728
   Scaling of DF-GGA-X  ScalDFX         ....  0.000000
   Scaling of DF-GGA-C  ScalDFC         ....  1.000000
   Scaling of DF-LDA-C  ScalLDAC        ....  1.000000
   Perturbative correction              ....  0.000000
   Density functional embedding theory  .... OFF
 Long-range corrected/Screened/Range-Separated Hybrid DFT is turned on
   Amount of maximum screened exact exchange              ....  0.804272
   Range separation parameter mu (erf(mu*r12)/r12)        ....  0.250000


General Settings:
 Integral files         IntName         .... config_7125
 Hartree-Fock type      HFTyp           .... RHF
 Total Charge           Charge          ....    0
 Multiplicity           Mult            ....    1
 Number of Electrons    NEL             ....  134
 Basis Dimension        Dim             ....  322
 Nuclear Repulsion      ENuc            ....   1303.5381339606 Eh

Convergence Acceleration:
 DIIS                   CNVDIIS         .... on
   Start iteration      DIISMaxIt       ....    12
   Startup error        DIISStart       ....  0.200000
   # of expansion vecs  DIISMaxEq       ....     5
   Bias factor          DIISBfac        ....   1.050
   Max. coefficient     DIISMaxC        ....  10.000
 Newton-Raphson         CNVNR           .... off
 SOSCF                  CNVSOSCF        .... on
   Start iteration      SOSCFMaxIt      ....   150
   Startup grad/error   SOSCFStart      ....  0.003300
 Level Shifting         CNVShift        .... on
   Level shift para.    LevelShift      ....    0.2500
   Turn off err/grad.   ShiftErr        ....    0.0010
 Zerner damping         CNVZerner       .... off
 Static damping         CNVDamp         .... on
   Fraction old density DampFac         ....    0.7000
   Max. Damping (<1)    DampMax         ....    0.9800
   Min. Damping (>=0)   DampMin         ....    0.0000
   Turn off err/grad.   DampErr         ....    0.1000
 Fernandez-Rico         CNVRico         .... off

SCF Procedure:
 Maximum # iterations   MaxIter         ....   125
 SCF integral mode      SCFMode         .... Direct
   Integral package                     .... LIBINT
 Reset frequency        DirectResetFreq ....    20
 Integral Threshold     Thresh          ....  1.000e-10 Eh
 Primitive CutOff       TCut            ....  1.000e-11 Eh

Convergence Tolerance:
 Convergence Check Mode ConvCheckMode   .... Total+1el-Energy
 Convergence forced     ConvForced      .... 0
 Energy Change          TolE            ....  1.000e-06 Eh
 1-El. energy change                    ....  1.000e-03 Eh
 Orbital Gradient       TolG            ....  5.000e-05
 Orbital Rotation angle TolX            ....  5.000e-05
 DIIS Error             TolErr          ....  1.000e-06


Diagonalization of the overlap matrix:
Smallest eigenvalue                        ... 5.555e-04
Time for diagonalization                   ...    0.014 sec
Threshold for overlap eigenvalues          ... 1.000e-08
Number of eigenvalues below threshold      ... 0
Time for construction of square roots      ...    0.026 sec
Total time needed                          ...    0.040 sec

-------------------
DFT GRID GENERATION
-------------------

General Integration Accuracy     IntAcc      ...  4.340
Radial Grid Type                 RadialGrid  ... Gauss-Chebyshev
Angular Grid (max. acc.)         AngularGrid ... Lebedev-110
Angular grid pruning method      GridPruning ... 3 (G Style)
Weight generation scheme         WeightScheme... Becke
Basis function cutoff            BFCut       ...    1.0000e-10
Integration weight cutoff        WCut        ...    1.0000e-14
Grids for H and He will be reduced by one unit

# of grid points (after initial pruning)     ...  41088 (   0.0 sec)
# of grid points (after weights+screening)   ...  36877 (   0.0 sec)
nearest neighbour list constructed           ...    0.0 sec
Grid point re-assignment to atoms done       ...    0.0 sec
Grid point division into batches done        ...    0.0 sec
Reduced shell lists constructed in    0.1 sec

Total number of grid points                  ...    36877
Total number of batches                      ...      591
Average number of points per batch           ...       62
Average number of grid points per atom       ...     1085
Average number of shells per batch           ...    68.85 (44.71%)
Average number of basis functions per batch  ...   136.54 (42.40%)
Average number of large shells per batch     ...    42.77 (62.12%)
Average number of large basis fcns per batch ...    89.69 (65.69%)
Maximum spatial batch extension              ...  17.92, 22.91, 12.42 au
Average spatial batch extension              ...   0.20,  0.23,  0.17 au

Time for grid setup =    0.147 sec

------------------------------
INITIAL GUESS: MODEL POTENTIAL
------------------------------
Loading Hartree-Fock densities                     ... done
Calculating cut-offs                               ... done
Setting up the integral package                    ... done
Initializing the effective Hamiltonian             ... done
Starting the Coulomb interaction                   ... done (   0.0 sec)
Reading the grid                                   ... done
Mapping shells                                     ... done
Starting the XC term evaluation                    ... done (   0.0 sec)
  promolecular density results
     # of electrons  =    133.991954970
     EX              =   -126.820246635
     EC              =     -4.641602445
     EX+EC           =   -131.461849080
Transforming the Hamiltonian                       ... done (   0.0 sec)
Diagonalizing the Hamiltonian                      ... done (   0.0 sec)
Back transforming the eigenvectors                 ... done (   0.0 sec)
Now organizing SCF variables                       ... done
                      ------------------
                      INITIAL GUESS DONE (   0.3 sec)
                      ------------------
--------------
SCF ITERATIONS
--------------
ITER       Energy         Delta-E        Max-DP      RMS-DP      [F,P]     Damp
               ***  Starting incremental Fock matrix formation  ***
  0  -1339.3708135239   0.000000000000 0.07040520  0.00168702  0.1655981 0.7000
  1  -1339.5709920796  -0.200178555641 0.04714511  0.00122148  0.0992585 0.7000
                               ***Turning on DIIS***
  2  -1339.6670564941  -0.096064414527 0.09202791  0.00227962  0.0508247 0.0000
  3  -1339.8120295978  -0.144973103668 0.04156093  0.00102592  0.0407603 0.0000
  4  -1339.8433530155  -0.031323417765 0.00827346  0.00021224  0.0082023 0.0000
                      *** Initiating the SOSCF procedure ***
                           *** Shutting down DIIS ***
                      *** Re-Reading the Fockian *** 
                      *** Removing any level shift *** 
ITER      Energy       Delta-E        Grad      Rot      Max-DP    RMS-DP
  5  -1339.84435352  -0.0010005066  0.001466  0.001466  0.003129  0.000102
               *** Restarting incremental Fock matrix formation ***
  6  -1339.84454688  -0.0001933600  0.001333  0.003725  0.002429  0.000067
  7  -1339.84460888  -0.0000619940  0.000788  0.004827  0.003436  0.000064
  8  -1339.84462537  -0.0000164946  0.000503  0.000939  0.000822  0.000021
  9  -1339.84463031  -0.0000049431  0.000120  0.000398  0.000372  0.000009
 10  -1339.84463077  -0.0000004533  0.000083  0.000266  0.000158  0.000004
                 **** Energy Check signals convergence ****
              ***Rediagonalizing the Fockian in SOSCF/NRSCF***

               *****************************************************
               *                     SUCCESS                       *
               *           SCF CONVERGED AFTER  11 CYCLES          *
               *****************************************************

Setting up the final grid:

General Integration Accuracy     IntAcc      ...  4.670
Radial Grid Type                 RadialGrid  ... Gauss-Chebyshev
Angular Grid (max. acc.)         AngularGrid ... Lebedev-302
Angular grid pruning method      GridPruning ... 3 (G Style)
Weight generation scheme         WeightScheme... Becke
Basis function cutoff            BFCut       ...    1.0000e-10
Integration weight cutoff        WCut        ...    1.0000e-14
Grids for H and He will be reduced by one unit

# of grid points (after initial pruning)     ... 161752 (   0.0 sec)
# of grid points (after weights+screening)   ... 142263 (   0.1 sec)
nearest neighbour list constructed           ...    0.0 sec
Grid point re-assignment to atoms done       ...    0.0 sec
Grid point division into batches done        ...    0.5 sec
Reduced shell lists constructed in    0.5 sec

Total number of grid points                  ...   142263
Total number of batches                      ...     2239
Average number of points per batch           ...       63
Average number of grid points per atom       ...     4184
Average number of shells per batch           ...    62.21 (40.40%)
Average number of basis functions per batch  ...   122.44 (38.03%)
Average number of large shells per batch     ...    37.38 (60.08%)
Average number of large basis fcns per batch ...    77.78 (63.52%)
Maximum spatial batch extension              ...  14.08, 15.15, 11.16 au
Average spatial batch extension              ...   0.12,  0.13,  0.12 au

Final grid set up in    0.9 sec
Final integration                            ... done (   0.3 sec)
Change in XC energy                          ...     0.006758372
Integrated number of electrons               ...   134.000035372
Previous integrated no of electrons          ...   134.000702501

----------------
TOTAL SCF ENERGY
----------------

Total Energy       :        -1339.83787263 Eh          -36458.84205 eV

Components:
Nuclear Repulsion  :         1303.53813396 Eh           35471.07594 eV
Electronic Energy  :        -2643.37600659 Eh          -71929.91799 eV
One Electron Energy:        -4423.33600926 Eh         -120365.09205 eV
Two Electron Energy:         1779.96000267 Eh           48435.17407 eV

Virial components:
Potential Energy   :        -2672.03667763 Eh          -72709.81449 eV
Kinetic Energy     :         1332.19880500 Eh           36250.97245 eV
Virial Ratio       :            2.00573418


DFT components:
N(Alpha)           :       67.000017686151 electrons
N(Beta)            :       67.000017686151 electrons
N(Total)           :      134.000035372302 electrons
E(XC)              :      -94.381452595451 Eh       
DFET-embed. en.    :        0.000000000000 Eh       

---------------
SCF CONVERGENCE
---------------

  Last Energy change         ...   -2.3293e-07  Tolerance :   1.0000e-06
  Last MAX-Density change    ...    3.5454e-05  Tolerance :   1.0000e-05
  Last RMS-Density change    ...    7.1005e-07  Tolerance :   1.0000e-06
  Last Orbital Gradient      ...    7.8379e-06  Tolerance :   5.0000e-05
  Last Orbital Rotation      ...    1.9026e-05  Tolerance :   5.0000e-05

             **** THE GBW FILE WAS UPDATED (config_7125.gbw) ****
             **** DENSITY FILE WAS UPDATED (config_7125.scfp) ****
             **** ENERGY FILE WAS UPDATED (config_7125.en.tmp) ****
             **** THE GBW FILE WAS UPDATED (config_7125.gbw) ****
             **** DENSITY FILE WAS UPDATED (config_7125.scfp) ****
----------------
ORBITAL ENERGIES
----------------

  NO   OCC          E(Eh)            E(eV) 
   0   2.0000     -88.970560     -2421.0120 
   1   2.0000     -88.958624     -2420.6872 
   2   2.0000     -10.335883      -281.2537 
   3   2.0000     -10.322927      -280.9011 
   4   2.0000     -10.314246      -280.6649 
   5   2.0000     -10.310755      -280.5699 
   6   2.0000     -10.298115      -280.2260 
   7   2.0000     -10.296215      -280.1743 
   8   2.0000     -10.295887      -280.1653 
   9   2.0000     -10.289323      -279.9867 
  10   2.0000     -10.287792      -279.9451 
  11   2.0000     -10.285526      -279.8834 
  12   2.0000     -10.285414      -279.8804 
  13   2.0000     -10.284876      -279.8657 
  14   2.0000     -10.281892      -279.7845 
  15   2.0000     -10.265399      -279.3357 
  16   2.0000      -8.085803      -220.0259 
  17   2.0000      -8.074892      -219.7290 
  18   2.0000      -6.044455      -164.4780 
  19   2.0000      -6.040079      -164.3589 
  20   2.0000      -6.036541      -164.2626 
  21   2.0000      -6.033471      -164.1791 
  22   2.0000      -6.029113      -164.0605 
  23   2.0000      -6.025535      -163.9631 
  24   2.0000      -1.020164       -27.7601 
  25   2.0000      -0.995324       -27.0842 
  26   2.0000      -0.927987       -25.2518 
  27   2.0000      -0.915947       -24.9242 
  28   2.0000      -0.883056       -24.0292 
  29   2.0000      -0.852120       -23.1874 
  30   2.0000      -0.849407       -23.1136 
  31   2.0000      -0.821334       -22.3496 
  32   2.0000      -0.782653       -21.2971 
  33   2.0000      -0.775767       -21.1097 
  34   2.0000      -0.713201       -19.4072 
  35   2.0000      -0.704068       -19.1587 
  36   2.0000      -0.686470       -18.6798 
  37   2.0000      -0.670469       -18.2444 
  38   2.0000      -0.635581       -17.2950 
  39   2.0000      -0.626085       -17.0366 
  40   2.0000      -0.599839       -16.3225 
  41   2.0000      -0.584635       -15.9087 
  42   2.0000      -0.567423       -15.4404 
  43   2.0000      -0.561802       -15.2874 
  44   2.0000      -0.545682       -14.8488 
  45   2.0000      -0.537584       -14.6284 
  46   2.0000      -0.528552       -14.3826 
  47   2.0000      -0.513884       -13.9835 
  48   2.0000      -0.508030       -13.8242 
  49   2.0000      -0.500257       -13.6127 
  50   2.0000      -0.499291       -13.5864 
  51   2.0000      -0.482208       -13.1216 
  52   2.0000      -0.475400       -12.9363 
  53   2.0000      -0.468755       -12.7555 
  54   2.0000      -0.459905       -12.5147 
  55   2.0000      -0.455197       -12.3865 
  56   2.0000      -0.443508       -12.0685 
  57   2.0000      -0.440013       -11.9734 
  58   2.0000      -0.426776       -11.6132 
  59   2.0000      -0.418860       -11.3978 
  60   2.0000      -0.414511       -11.2794 
  61   2.0000      -0.408750       -11.1227 
  62   2.0000      -0.403999       -10.9934 
  63   2.0000      -0.364197        -9.9103 
  64   2.0000      -0.331547        -9.0219 
  65   2.0000      -0.326669        -8.8891 
  66   2.0000      -0.291222        -7.9246 
  67   0.0000       0.026407         0.7186 
  68   0.0000       0.081430         2.2158 
  69   0.0000       0.108021         2.9394 
  70   0.0000       0.113392         3.0856 
  71   0.0000       0.125239         3.4079 
  72   0.0000       0.136539         3.7154 
  73   0.0000       0.154620         4.2074 
  74   0.0000       0.161245         4.3877 
  75   0.0000       0.164176         4.4674 
  76   0.0000       0.169003         4.5988 
  77   0.0000       0.180882         4.9220 
  78   0.0000       0.187956         5.1145 
  79   0.0000       0.190198         5.1756 
  80   0.0000       0.197601         5.3770 
  81   0.0000       0.205711         5.5977 
  82   0.0000       0.214058         5.8248 
  83   0.0000       0.221995         6.0408 
  84   0.0000       0.226387         6.1603 
  85   0.0000       0.229518         6.2455 
  86   0.0000       0.234496         6.3810 
  87   0.0000       0.237181         6.4540 
  88   0.0000       0.251593         6.8462 
  89   0.0000       0.252992         6.8843 
  90   0.0000       0.260404         7.0860 
  91   0.0000       0.266025         7.2389 
  92   0.0000       0.279080         7.5942 
  93   0.0000       0.294008         8.0004 
  94   0.0000       0.305262         8.3066 
  95   0.0000       0.318301         8.6614 
  96   0.0000       0.341767         9.3000 
  97   0.0000       0.359630         9.7860 
  98   0.0000       0.367639        10.0040 
  99   0.0000       0.372146        10.1266 
 100   0.0000       0.387617        10.5476 
 101   0.0000       0.412274        11.2186 
 102   0.0000       0.416245        11.3266 
 103   0.0000       0.420036        11.4297 
 104   0.0000       0.436344        11.8735 
 105   0.0000       0.446228        12.1425 
 106   0.0000       0.459716        12.5095 
 107   0.0000       0.480021        13.0620 
 108   0.0000       0.494846        13.4654 
 109   0.0000       0.499614        13.5952 
 110   0.0000       0.510172        13.8825 
 111   0.0000       0.517322        14.0771 
 112   0.0000       0.521583        14.1930 
 113   0.0000       0.526639        14.3306 
 114   0.0000       0.534716        14.5504 
 115   0.0000       0.541491        14.7347 
 116   0.0000       0.546522        14.8716 
 117   0.0000       0.562455        15.3052 
 118   0.0000       0.568973        15.4826 
 119   0.0000       0.578697        15.7471 
 120   0.0000       0.586000        15.9459 
 121   0.0000       0.595179        16.1956 
 122   0.0000       0.606666        16.5082 
 123   0.0000       0.613773        16.7016 
 124   0.0000       0.617621        16.8063 
 125   0.0000       0.621539        16.9129 
 126   0.0000       0.632469        17.2103 
 127   0.0000       0.651800        17.7364 
 128   0.0000       0.666052        18.1242 
 129   0.0000       0.672808        18.3080 
 130   0.0000       0.685043        18.6410 
 131   0.0000       0.689696        18.7676 
 132   0.0000       0.699148        19.0248 
 133   0.0000       0.706097        19.2139 
 134   0.0000       0.708905        19.2903 
 135   0.0000       0.713063        19.4034 
 136   0.0000       0.721351        19.6290 
 137   0.0000       0.726261        19.7626 
 138   0.0000       0.734054        19.9746 
 139   0.0000       0.739980        20.1359 
 140   0.0000       0.745773        20.2935 
 141   0.0000       0.749488        20.3946 
 142   0.0000       0.754615        20.5341 
 143   0.0000       0.758382        20.6366 
 144   0.0000       0.765145        20.8207 
 145   0.0000       0.768244        20.9050 
 146   0.0000       0.773364        21.0443 
 147   0.0000       0.775832        21.1115 
 148   0.0000       0.779150        21.2017 
 149   0.0000       0.783736        21.3265 
 150   0.0000       0.790653        21.5148 
 151   0.0000       0.795160        21.6374 
 152   0.0000       0.796214        21.6661 
 153   0.0000       0.802543        21.8383 
 154   0.0000       0.805006        21.9053 
 155   0.0000       0.806897        21.9568 
 156   0.0000       0.814087        22.1524 
 157   0.0000       0.821503        22.3542 
 158   0.0000       0.827235        22.5102 
 159   0.0000       0.830087        22.5878 
 160   0.0000       0.838701        22.8222 
 161   0.0000       0.843986        22.9660 
 162   0.0000       0.852406        23.1951 
 163   0.0000       0.856550        23.3079 
 164   0.0000       0.862595        23.4724 
 165   0.0000       0.876303        23.8454 
 166   0.0000       0.887973        24.1630 
 167   0.0000       0.895353        24.3638 
 168   0.0000       0.907599        24.6970 
 169   0.0000       0.912901        24.8413 
 170   0.0000       0.920605        25.0509 
 171   0.0000       0.933000        25.3882 
 172   0.0000       0.949541        25.8383 
 173   0.0000       0.961542        26.1649 
 174   0.0000       0.974582        26.5197 
 175   0.0000       0.989031        26.9129 
 176   0.0000       1.000611        27.2280 
 177   0.0000       1.004646        27.3378 
 178   0.0000       1.011809        27.5327 
 179   0.0000       1.042067        28.3561 
 180   0.0000       1.049750        28.5651 
 181   0.0000       1.089728        29.6530 
 182   0.0000       1.092690        29.7336 
 183   0.0000       1.106608        30.1123 
 184   0.0000       1.125828        30.6353 
 185   0.0000       1.131358        30.7858 
 186   0.0000       1.136520        30.9263 
 187   0.0000       1.165168        31.7058 
 188   0.0000       1.172968        31.9181 
 189   0.0000       1.192308        32.4444 
 190   0.0000       1.196774        32.5659 
 191   0.0000       1.221468        33.2378 
 192   0.0000       1.259031        34.2600 
 193   0.0000       1.296542        35.2807 
 194   0.0000       1.304019        35.4842 
 195   0.0000       1.309368        35.6297 
 196   0.0000       1.347796        36.6754 
 197   0.0000       1.350369        36.7454 
 198   0.0000       1.373722        37.3809 
 199   0.0000       1.377686        37.4887 
 200   0.0000       1.401182        38.1281 
 201   0.0000       1.421036        38.6684 
 202   0.0000       1.429430        38.8968 
 203   0.0000       1.452061        39.5126 
 204   0.0000       1.478188        40.2235 
 205   0.0000       1.486587        40.4521 
 206   0.0000       1.500738        40.8372 
 207   0.0000       1.525601        41.5137 
 208   0.0000       1.552750        42.2525 
 209   0.0000       1.577864        42.9359 
 210   0.0000       1.603315        43.6284 
 211   0.0000       1.616776        43.9947 
 212   0.0000       1.624575        44.2069 
 213   0.0000       1.634067        44.4652 
 214   0.0000       1.639560        44.6147 
 215   0.0000       1.660866        45.1945 
 216   0.0000       1.705008        46.3956 
 217   0.0000       1.718119        46.7524 
 218   0.0000       1.737165        47.2707 
 219   0.0000       1.765756        48.0487 
 220   0.0000       1.793467        48.8027 
 221   0.0000       1.797812        48.9209 
 222   0.0000       1.805354        49.1262 
 223   0.0000       1.821815        49.5741 
 224   0.0000       1.834337        49.9148 
 225   0.0000       1.841926        50.1214 
 226   0.0000       1.845704        50.2242 
 227   0.0000       1.854832        50.4725 
 228   0.0000       1.869822        50.8804 
 229   0.0000       1.873462        50.9795 
 230   0.0000       1.881028        51.1854 
 231   0.0000       1.886758        51.3413 
 232   0.0000       1.889167        51.4069 
 233   0.0000       1.890802        51.4513 
 234   0.0000       1.900241        51.7082 
 235   0.0000       1.907678        51.9105 
 236   0.0000       1.915831        52.1324 
 237   0.0000       1.923385        52.3380 
 238   0.0000       1.929257        52.4978 
 239   0.0000       1.933641        52.6171 
 240   0.0000       1.938449        52.7479 
 241   0.0000       1.951993        53.1164 
 242   0.0000       1.961996        53.3886 
 243   0.0000       1.972494        53.6743 
 244   0.0000       1.978193        53.8294 
 245   0.0000       1.984042        53.9885 
 246   0.0000       2.001294        54.4580 
 247   0.0000       2.010313        54.7034 
 248   0.0000       2.015063        54.8326 
 249   0.0000       2.031762        55.2871 
 250   0.0000       2.047292        55.7096 
 251   0.0000       2.054026        55.8929 
 252   0.0000       2.066714        56.2381 
 253   0.0000       2.073289        56.4171 
 254   0.0000       2.095544        57.0226 
 255   0.0000       2.102132        57.2019 
 256   0.0000       2.127317        57.8873 
 257   0.0000       2.139539        58.2198 
 258   0.0000       2.147696        58.4418 
 259   0.0000       2.161675        58.8222 
 260   0.0000       2.174755        59.1781 
 261   0.0000       2.189137        59.5695 
 262   0.0000       2.196035        59.7572 
 263   0.0000       2.222174        60.4684 
 264   0.0000       2.238599        60.9154 
 265   0.0000       2.244217        61.0682 
 266   0.0000       2.252208        61.2857 
 267   0.0000       2.261226        61.5311 
 268   0.0000       2.290310        62.3225 
 269   0.0000       2.308846        62.8269 
 270   0.0000       2.344769        63.8044 
 271   0.0000       2.362239        64.2798 
 272   0.0000       2.389407        65.0191 
 273   0.0000       2.401590        65.3506 
 274   0.0000       2.412113        65.6369 
 275   0.0000       2.431713        66.1703 
 276   0.0000       2.438731        66.3612 
 277   0.0000       2.452747        66.7426 
 278   0.0000       2.462904        67.0190 
 279   0.0000       2.465813        67.0982 
 280   0.0000       2.494516        67.8792 
 281   0.0000       2.503853        68.1333 
 282   0.0000       2.520507        68.5865 
 283   0.0000       2.547537        69.3220 
 284   0.0000       2.557224        69.5856 
 285   0.0000       2.561475        69.7013 
 286   0.0000       2.571706        69.9797 
 287   0.0000       2.585114        70.3445 
 288   0.0000       2.612480        71.0892 
 289   0.0000       2.642322        71.9012 
 290   0.0000       2.678262        72.8792 
 291   0.0000       2.684003        73.0354 
 292   0.0000       2.692378        73.2633 
 293   0.0000       2.708870        73.7121 
 294   0.0000       2.714704        73.8708 
 295   0.0000       2.767125        75.2973 
 296   0.0000       2.780127        75.6511 
 297   0.0000       2.790675        75.9381 
 298   0.0000       2.804196        76.3061 
 299   0.0000       2.853172        77.6388 
 300   0.0000       2.868518        78.0563 
 301   0.0000       2.892897        78.7197 
 302   0.0000       2.905149        79.0531 
 303   0.0000       2.974068        80.9285 
 304   0.0000       2.981429        81.1288 
 305   0.0000       2.984172        81.2035 
 306   0.0000       2.994018        81.4714 
 307   0.0000       3.025421        82.3259 
 308   0.0000       3.037093        82.6435 
 309   0.0000       3.049688        82.9862 
 310   0.0000       3.068798        83.5062 
 311   0.0000       3.086652        83.9921 
 312   0.0000       3.096435        84.2583 
 313   0.0000       3.122109        84.9569 
 314   0.0000       3.142979        85.5248 
 315   0.0000       3.167242        86.1850 
 316   0.0000       3.185779        86.6894 
 317   0.0000       3.193505        86.8997 
 318   0.0000       3.260741        88.7293 
 319   0.0000       3.286749        89.4370 
 320   0.0000       3.392283        92.3087 
 321   0.0000       3.513750        95.6140 

                    ********************************
                    * MULLIKEN POPULATION ANALYSIS *
                    ********************************

-----------------------
MULLIKEN ATOMIC CHARGES
-----------------------
   0 S :    0.125097
   1 C :   -0.111229
   2 C :   -0.083708
   3 C :   -0.000789
   4 C :   -0.124340
   5 H :    0.022329
   6 C :    0.039666
   7 H :    0.016637
   8 H :    0.032099
   9 C :   -0.072128
  10 H :    0.023672
  11 H :    0.035306
  12 C :   -0.033756
  13 H :    0.022746
  14 H :    0.026295
  15 H :    0.035940
  16 S :    0.070498
  17 C :   -0.071461
  18 C :    0.009958
  19 C :   -0.076725
  20 C :   -0.089720
  21 H :   -0.004656
  22 C :    0.002312
  23 H :    0.015706
  24 H :    0.032657
  25 C :   -0.083953
  26 H :    0.033583
  27 H :    0.023253
  28 C :   -0.015771
  29 H :    0.034254
  30 H :    0.013423
  31 H :    0.047024
  32 H :    0.051314
  33 H :    0.054470
Sum of atomic charges:   -0.0000000

--------------------------------
MULLIKEN REDUCED ORBITAL CHARGES
--------------------------------
  0 S s       :     5.835966  s :     5.835966
      pz      :     2.996762  p :     9.924561
      px      :     3.303424
      py      :     3.624375
      dz2     :     0.025765  d :     0.114377
      dxz     :     0.030497
      dyz     :     0.026663
      dx2y2   :     0.017016
      dxy     :     0.014436
  1 C s       :     3.162383  s :     3.162383
      pz      :     0.935305  p :     2.913469
      px      :     0.874725
      py      :     1.103439
      dz2     :     0.008576  d :     0.035377
      dxz     :     0.009954
      dyz     :     0.004154
      dx2y2   :     0.006427
      dxy     :     0.006265
  2 C s       :     3.080606  s :     3.080606
      pz      :     0.999013  p :     2.957182
      px      :     0.967150
      py      :     0.991019
      dz2     :     0.009915  d :     0.045920
      dxz     :     0.014470
      dyz     :     0.007223
      dx2y2   :     0.007174
      dxy     :     0.007139
  3 C s       :     3.176899  s :     3.176899
      pz      :     0.922527  p :     2.791849
      px      :     0.887169
      py      :     0.982154
      dz2     :     0.007832  d :     0.032041
      dxz     :     0.008057
      dyz     :     0.004817
      dx2y2   :     0.005176
      dxy     :     0.006159
  4 C s       :     3.031335  s :     3.031335
      pz      :     0.973341  p :     3.048129
      px      :     0.999309
      py      :     1.075479
      dz2     :     0.011098  d :     0.044877
      dxz     :     0.013445
      dyz     :     0.007179
      dx2y2   :     0.006410
      dxy     :     0.006745
  5 H s       :     0.953489  s :     0.953489
      pz      :     0.009450  p :     0.024182
      px      :     0.006232
      py      :     0.008500
  6 C s       :     2.945935  s :     2.945935
      pz      :     0.992704  p :     2.974534
      px      :     1.002623
      py      :     0.979207
      dz2     :     0.005582  d :     0.039865
      dxz     :     0.008219
      dyz     :     0.008015
      dx2y2   :     0.009701
      dxy     :     0.008348
  7 H s       :     0.958234  s :     0.958234
      pz      :     0.010987  p :     0.025129
      px      :     0.008546
      py      :     0.005596
  8 H s       :     0.947453  s :     0.947453
      pz      :     0.010122  p :     0.020448
      px      :     0.004560
      py      :     0.005766
  9 C s       :     3.056448  s :     3.056448
      pz      :     1.017451  p :     2.977746
      px      :     0.996717
      py      :     0.963578
      dz2     :     0.006121  d :     0.037933
      dxz     :     0.006328
      dyz     :     0.009014
      dx2y2   :     0.009644
      dxy     :     0.006826
 10 H s       :     0.953966  s :     0.953966
      pz      :     0.011470  p :     0.022362
      px      :     0.004549
      py      :     0.006343
 11 H s       :     0.942989  s :     0.942989
      pz      :     0.008815  p :     0.021705
      px      :     0.007657
      py      :     0.005233
 12 C s       :     3.016867  s :     3.016867
      pz      :     1.031433  p :     2.989785
      px      :     0.965952
      py      :     0.992400
      dz2     :     0.006414  d :     0.027104
      dxz     :     0.005724
      dyz     :     0.003021
      dx2y2   :     0.007187
      dxy     :     0.004758
 13 H s       :     0.953854  s :     0.953854
      pz      :     0.013032  p :     0.023400
      px      :     0.004488
      py      :     0.005880
 14 H s       :     0.949301  s :     0.949301
      pz      :     0.008666  p :     0.024404
      px      :     0.007998
      py      :     0.007740
 15 H s       :     0.939101  s :     0.939101
      pz      :     0.005567  p :     0.024959
      px      :     0.004484
      py      :     0.014908
 16 S s       :     5.848653  s :     5.848653
      pz      :     3.195442  p :     9.967157
      px      :     3.359480
      py      :     3.412236
      dz2     :     0.035344  d :     0.113692
      dxz     :     0.015479
      dyz     :     0.019065
      dx2y2   :     0.019116
      dxy     :     0.024688
 17 C s       :     3.139811  s :     3.139811
      pz      :     0.875484  p :     2.894432
      px      :     0.996343
      py      :     1.022605
      dz2     :     0.010074  d :     0.037219
      dxz     :     0.007201
      dyz     :     0.006901
      dx2y2   :     0.006738
      dxy     :     0.006305
 18 C s       :     3.170135  s :     3.170135
      pz      :     0.858973  p :     2.782563
      px      :     0.989480
      py      :     0.934111
      dz2     :     0.008020  d :     0.037344
      dxz     :     0.006906
      dyz     :     0.008510
      dx2y2   :     0.008186
      dxy     :     0.005723
 19 C s       :     3.059346  s :     3.059346
      pz      :     0.964103  p :     2.971367
      px      :     0.986039
      py      :     1.021225
      dz2     :     0.010482  d :     0.046011
      dxz     :     0.009195
      dyz     :     0.011629
      dx2y2   :     0.007301
      dxy     :     0.007404
 20 C s       :     3.035449  s :     3.035449
      pz      :     1.025042  p :     3.006944
      px      :     1.014660
      py      :     0.967242
      dz2     :     0.012796  d :     0.047327
      dxz     :     0.008917
      dyz     :     0.008773
      dx2y2   :     0.007313
      dxy     :     0.009530
 21 H s       :     0.978567  s :     0.978567
      pz      :     0.014198  p :     0.026089
      px      :     0.005199
      py      :     0.006692
 22 C s       :     3.005474  s :     3.005474
      pz      :     0.994787  p :     2.954942
      px      :     0.961644
      py      :     0.998512
      dz2     :     0.006294  d :     0.037272
      dxz     :     0.008841
      dyz     :     0.007123
      dx2y2   :     0.005515
      dxy     :     0.009500
 23 H s       :     0.961002  s :     0.961002
      pz      :     0.011304  p :     0.023292
      px      :     0.005522
      py      :     0.006466
 24 H s       :     0.946643  s :     0.946643
      pz      :     0.005389  p :     0.020700
      px      :     0.008165
      py      :     0.007147
 25 C s       :     3.057476  s :     3.057476
      pz      :     1.007723  p :     2.987330
      px      :     0.968545
      py      :     1.011062
      dz2     :     0.007161  d :     0.039148
      dxz     :     0.010105
      dyz     :     0.005304
      dx2y2   :     0.008233
      dxy     :     0.008344
 26 H s       :     0.944550  s :     0.944550
      pz      :     0.004318  p :     0.021867
      px      :     0.004853
      py      :     0.012696
 27 H s       :     0.955970  s :     0.955970
      pz      :     0.010133  p :     0.020777
      px      :     0.005136
      py      :     0.005508
 28 C s       :     2.967432  s :     2.967432
      pz      :     1.027758  p :     3.018777
      px      :     0.998750
      py      :     0.992269
      dz2     :     0.004284  d :     0.029562
      dxz     :     0.004729
      dyz     :     0.008224
      dx2y2   :     0.004387
      dxy     :     0.007938
 29 H s       :     0.941246  s :     0.941246
      pz      :     0.006019  p :     0.024500
      px      :     0.010501
      py      :     0.007980
 30 H s       :     0.958480  s :     0.958480
      pz      :     0.012649  p :     0.028097
      px      :     0.006567
      py      :     0.008881
 31 H s       :     0.929432  s :     0.929432
      pz      :     0.009598  p :     0.023544
      px      :     0.004809
      py      :     0.009137
 32 H s       :     0.924626  s :     0.924626
      pz      :     0.014965  p :     0.024060
      px      :     0.003313
      py      :     0.005783
 33 H s       :     0.921739  s :     0.921739
      pz      :     0.005879  p :     0.023791
      px      :     0.011401
      py      :     0.006512


                     *******************************
                     * LOEWDIN POPULATION ANALYSIS *
                     *******************************

----------------------
LOEWDIN ATOMIC CHARGES
----------------------
   0 S :    0.428345
   1 C :   -0.203546
   2 C :   -0.062916
   3 C :   -0.069674
   4 C :   -0.201390
   5 H :    0.031875
   6 C :   -0.043635
   7 H :    0.027974
   8 H :    0.038029
   9 C :   -0.039511
  10 H :    0.025046
  11 H :    0.025692
  12 C :   -0.059928
  13 H :    0.024855
  14 H :    0.025331
  15 H :    0.020773
  16 S :    0.408811
  17 C :   -0.165829
  18 C :   -0.059502
  19 C :   -0.070049
  20 C :   -0.206048
  21 H :    0.024695
  22 C :   -0.043680
  23 H :    0.021010
  24 H :    0.038534
  25 C :   -0.044574
  26 H :    0.028290
  27 H :    0.023293
  28 C :   -0.069136
  29 H :    0.022546
  30 H :    0.022768
  31 H :    0.036157
  32 H :    0.035014
  33 H :    0.030381

-------------------------------
LOEWDIN REDUCED ORBITAL CHARGES
-------------------------------
  0 S s       :     5.480118  s :     5.480118
      pz      :     3.021958  p :     9.948328
      px      :     3.332005
      py      :     3.594365
      dz2     :     0.034571  d :     0.143209
      dxz     :     0.039695
      dyz     :     0.033844
      dx2y2   :     0.019353
      dxy     :     0.015746
  1 C s       :     2.921056  s :     2.921056
      pz      :     1.069806  p :     3.197448
      px      :     1.019637
      py      :     1.108005
      dz2     :     0.022387  d :     0.085042
      dxz     :     0.026343
      dyz     :     0.007908
      dx2y2   :     0.014832
      dxy     :     0.013573
  2 C s       :     2.856018  s :     2.856018
      pz      :     1.065045  p :     3.092174
      px      :     1.051413
      py      :     0.975716
      dz2     :     0.026906  d :     0.114724
      dxz     :     0.039531
      dyz     :     0.015718
      dx2y2   :     0.016442
      dxy     :     0.016126
  3 C s       :     2.883623  s :     2.883623
      pz      :     1.041734  p :     3.102192
      px      :     1.031317
      py      :     1.029141
      dz2     :     0.021584  d :     0.083859
      dxz     :     0.023187
      dyz     :     0.010483
      dx2y2   :     0.014707
      dxy     :     0.013898
  4 C s       :     2.903600  s :     2.903600
      pz      :     1.031840  p :     3.190034
      px      :     1.090484
      py      :     1.067710
      dz2     :     0.028201  d :     0.107756
      dxz     :     0.033888
      dyz     :     0.015343
      dx2y2   :     0.016485
      dxy     :     0.013839
  5 H s       :     0.897677  s :     0.897677
      pz      :     0.027327  p :     0.070448
      px      :     0.018797
      py      :     0.024323
  6 C s       :     2.807792  s :     2.807792
      pz      :     1.050988  p :     3.133068
      px      :     1.037161
      py      :     1.044919
      dz2     :     0.015045  d :     0.102775
      dxz     :     0.021449
      dyz     :     0.019329
      dx2y2   :     0.026205
      dxy     :     0.020748
  7 H s       :     0.896837  s :     0.896837
      pz      :     0.031802  p :     0.075190
      px      :     0.025622
      py      :     0.017766
  8 H s       :     0.905496  s :     0.905496
      pz      :     0.026719  p :     0.056474
      px      :     0.013516
      py      :     0.016240
  9 C s       :     2.834024  s :     2.834024
      pz      :     1.059323  p :     3.113714
      px      :     1.025665
      py      :     1.028726
      dz2     :     0.015023  d :     0.091774
      dxz     :     0.015071
      dyz     :     0.020962
      dx2y2   :     0.024963
      dxy     :     0.015756
 10 H s       :     0.909607  s :     0.909607
      pz      :     0.032465  p :     0.065347
      px      :     0.014065
      py      :     0.018817
 11 H s       :     0.909376  s :     0.909376
      pz      :     0.024471  p :     0.064932
      px      :     0.024013
      py      :     0.016448
 12 C s       :     2.840034  s :     2.840034
      pz      :     1.071982  p :     3.151454
      px      :     1.017968
      py      :     1.061504
      dz2     :     0.016241  d :     0.068441
      dxz     :     0.013032
      dyz     :     0.007835
      dx2y2   :     0.019490
      dxy     :     0.011844
 13 H s       :     0.912259  s :     0.912259
      pz      :     0.034791  p :     0.062886
      px      :     0.014027
      py      :     0.014067
 14 H s       :     0.906887  s :     0.906887
      pz      :     0.022297  p :     0.067782
      px      :     0.024106
      py      :     0.021379
 15 H s       :     0.906142  s :     0.906142
      pz      :     0.015538  p :     0.073085
      px      :     0.015243
      py      :     0.042305
 16 S s       :     5.487106  s :     5.487106
      pz      :     3.199628  p :     9.963875
      px      :     3.345133
      py      :     3.419114
      dz2     :     0.045074  d :     0.140208
      dxz     :     0.018944
      dyz     :     0.021570
      dx2y2   :     0.022420
      dxy     :     0.032200
 17 C s       :     2.920859  s :     2.920859
      pz      :     0.997910  p :     3.157630
      px      :     1.067342
      py      :     1.092378
      dz2     :     0.024084  d :     0.087339
      dxz     :     0.016391
      dyz     :     0.016767
      dx2y2   :     0.013664
      dxy     :     0.016432
 18 C s       :     2.840593  s :     2.840593
      pz      :     1.039500  p :     3.119177
      px      :     1.031341
      py      :     1.048336
      dz2     :     0.020724  d :     0.099732
      dxz     :     0.018399
      dyz     :     0.025169
      dx2y2   :     0.019162
      dxy     :     0.016278
 19 C s       :     2.844948  s :     2.844948
      pz      :     1.050226  p :     3.108361
      px      :     1.024694
      py      :     1.033440
      dz2     :     0.028138  d :     0.116741
      dxz     :     0.024251
      dyz     :     0.031357
      dx2y2   :     0.015470
      dxy     :     0.017524
 20 C s       :     2.883917  s :     2.883917
      pz      :     1.089465  p :     3.205831
      px      :     1.060496
      py      :     1.055869
      dz2     :     0.033590  d :     0.116300
      dxz     :     0.022687
      dyz     :     0.021951
      dx2y2   :     0.015681
      dxy     :     0.022391
 21 H s       :     0.897248  s :     0.897248
      pz      :     0.040145  p :     0.078057
      px      :     0.017415
      py      :     0.020497
 22 C s       :     2.831527  s :     2.831527
      pz      :     1.056318  p :     3.118815
      px      :     1.031222
      py      :     1.031276
      dz2     :     0.014988  d :     0.093338
      dxz     :     0.023767
      dyz     :     0.017310
      dx2y2   :     0.012813
      dxy     :     0.024460
 23 H s       :     0.908732  s :     0.908732
      pz      :     0.032704  p :     0.070258
      px      :     0.017367
      py      :     0.020187
 24 H s       :     0.903820  s :     0.903820
      pz      :     0.014492  p :     0.057646
      px      :     0.023055
      py      :     0.020099
 25 C s       :     2.835055  s :     2.835055
      pz      :     1.040416  p :     3.114196
      px      :     1.025406
      py      :     1.048374
      dz2     :     0.016501  d :     0.095324
      dxz     :     0.026366
      dyz     :     0.012239
      dx2y2   :     0.019745
      dxy     :     0.020473
 26 H s       :     0.907310  s :     0.907310
      pz      :     0.013236  p :     0.064400
      px      :     0.015378
      py      :     0.035786
 27 H s       :     0.918248  s :     0.918248
      pz      :     0.028569  p :     0.058459
      px      :     0.014599
      py      :     0.015290
 28 C s       :     2.814409  s :     2.814409
      pz      :     1.078200  p :     3.178204
      px      :     1.047373
      py      :     1.052632
      dz2     :     0.010725  d :     0.076523
      dxz     :     0.011141
      dyz     :     0.022673
      dx2y2   :     0.009863
      dxy     :     0.022121
 29 H s       :     0.906739  s :     0.906739
      pz      :     0.016532  p :     0.070715
      px      :     0.030735
      py      :     0.023448
 30 H s       :     0.897610  s :     0.897610
      pz      :     0.035443  p :     0.079622
      px      :     0.019207
      py      :     0.024972
 31 H s       :     0.900924  s :     0.900924
      pz      :     0.023780  p :     0.062919
      px      :     0.013770
      py      :     0.025369
 32 H s       :     0.890929  s :     0.890929
      pz      :     0.043037  p :     0.074057
      px      :     0.012254
      py      :     0.018766
 33 H s       :     0.895761  s :     0.895761
      pz      :     0.020771  p :     0.073858
      px      :     0.033530
      py      :     0.019557


                      *****************************
                      * MAYER POPULATION ANALYSIS *
                      *****************************

  NA   - Mulliken gross atomic population
  ZA   - Total nuclear charge
  QA   - Mulliken gross atomic charge
  VA   - Mayer's total valence
  BVA  - Mayer's bonded valence
  FA   - Mayer's free valence

  ATOM       NA         ZA         QA         VA         BVA        FA
  0 S     15.8749    16.0000     0.1251     2.4962     2.4962     0.0000
  1 C      6.1112     6.0000    -0.1112     3.8345     3.8345     0.0000
  2 C      6.0837     6.0000    -0.0837     4.0675     4.0675    -0.0000
  3 C      6.0008     6.0000    -0.0008     3.9171     3.9171    -0.0000
  4 C      6.1243     6.0000    -0.1243     3.8828     3.8828     0.0000
  5 H      0.9777     1.0000     0.0223     1.0232     1.0232    -0.0000
  6 C      5.9603     6.0000     0.0397     3.9873     3.9873     0.0000
  7 H      0.9834     1.0000     0.0166     0.9886     0.9886     0.0000
  8 H      0.9679     1.0000     0.0321     0.9871     0.9871    -0.0000
  9 C      6.0721     6.0000    -0.0721     4.0744     4.0744    -0.0000
 10 H      0.9763     1.0000     0.0237     0.9776     0.9776     0.0000
 11 H      0.9647     1.0000     0.0353     0.9829     0.9829     0.0000
 12 C      6.0338     6.0000    -0.0338     3.9981     3.9981     0.0000
 13 H      0.9773     1.0000     0.0227     0.9875     0.9875    -0.0000
 14 H      0.9737     1.0000     0.0263     0.9943     0.9943     0.0000
 15 H      0.9641     1.0000     0.0359     0.9864     0.9864    -0.0000
 16 S     15.9295    16.0000     0.0705     2.4732     2.4732     0.0000
 17 C      6.0715     6.0000    -0.0715     3.8187     3.8187     0.0000
 18 C      5.9900     6.0000     0.0100     3.9415     3.9415     0.0000
 19 C      6.0767     6.0000    -0.0767     4.0378     4.0378     0.0000
 20 C      6.0897     6.0000    -0.0897     3.9046     3.9046     0.0000
 21 H      1.0047     1.0000    -0.0047     1.0002     1.0002    -0.0000
 22 C      5.9977     6.0000     0.0023     4.0251     4.0251    -0.0000
 23 H      0.9843     1.0000     0.0157     0.9886     0.9886    -0.0000
 24 H      0.9673     1.0000     0.0327     0.9768     0.9768    -0.0000
 25 C      6.0840     6.0000    -0.0840     4.0881     4.0881    -0.0000
 26 H      0.9664     1.0000     0.0336     0.9756     0.9756    -0.0000
 27 H      0.9767     1.0000     0.0233     0.9776     0.9776     0.0000
 28 C      6.0158     6.0000    -0.0158     3.9745     3.9745     0.0000
 29 H      0.9657     1.0000     0.0343     0.9864     0.9864     0.0000
 30 H      0.9866     1.0000     0.0134     0.9929     0.9929    -0.0000
 31 H      0.9530     1.0000     0.0470     1.0077     1.0077     0.0000
 32 H      0.9487     1.0000     0.0513     1.0056     1.0056     0.0000
 33 H      0.9455     1.0000     0.0545     0.9958     0.9958     0.0000

  Mayer bond orders larger than 0.100000
B(  0-S ,  1-C ) :   1.1293 B(  0-S ,  4-C ) :   1.1639 B(  1-C ,  2-C ) :   1.6277 
B(  1-C , 32-H ) :   0.9623 B(  2-C ,  3-C ) :   1.2516 B(  2-C ,  6-C ) :   1.0410 
B(  3-C ,  4-C ) :   1.5435 B(  3-C ,  5-H ) :   0.9695 B(  4-C , 20-C ) :   1.0470 
B(  6-C ,  7-H ) :   0.9191 B(  6-C ,  8-H ) :   0.9388 B(  6-C ,  9-C ) :   1.0862 
B(  9-C , 10-H ) :   0.9473 B(  9-C , 11-H ) :   0.9557 B(  9-C , 12-C ) :   1.0745 
B( 12-C , 13-H ) :   0.9746 B( 12-C , 14-H ) :   0.9732 B( 12-C , 15-H ) :   0.9761 
B( 16-S , 17-C ) :   1.1492 B( 16-S , 20-C ) :   1.1215 B( 17-C , 18-C ) :   1.6096 
B( 17-C , 33-H ) :   0.9661 B( 18-C , 19-C ) :   1.2300 B( 18-C , 21-H ) :   1.0083 
B( 19-C , 20-C ) :   1.6169 B( 19-C , 22-C ) :   1.0466 B( 22-C , 23-H ) :   0.9389 
B( 22-C , 24-H ) :   0.9333 B( 22-C , 25-C ) :   1.0870 B( 25-C , 26-H ) :   0.9516 
B( 25-C , 27-H ) :   0.9610 B( 25-C , 28-C ) :   1.0654 B( 28-C , 29-H ) :   0.9710 
B( 28-C , 30-H ) :   0.9687 B( 28-C , 31-H ) :   0.9673 

-------
TIMINGS
-------

Total SCF time: 0 days 0 hours 0 min 20 sec 

Total time                  ....      20.772 sec
Sum of individual times     ....      19.904 sec  ( 95.8%)

Fock matrix formation       ....      18.243 sec  ( 87.8%)
  XC integration            ....       1.461 sec  (  8.0% of F)
    Basis function eval.    ....       0.141 sec  (  9.7% of XC)
    Density eval.           ....       0.104 sec  (  7.1% of XC)
    XC-Functional eval.     ....       0.115 sec  (  7.9% of XC)
    XC-Potential eval.      ....       0.122 sec  (  8.4% of XC)
Diagonalization             ....       0.131 sec  (  0.6%)
Density matrix formation    ....       0.025 sec  (  0.1%)
Population analysis         ....       0.054 sec  (  0.3%)
Initial guess               ....       0.169 sec  (  0.8%)
Orbital Transformation      ....       0.000 sec  (  0.0%)
Orbital Orthonormalization  ....       0.000 sec  (  0.0%)
DIIS solution               ....       0.153 sec  (  0.7%)
SOSCF solution              ....       0.123 sec  (  0.6%)
Grid generation             ....       1.004 sec  (  4.8%)


-------------------------------------------------------------------------------
                          DFT DISPERSION CORRECTION                            
                                                                               
                              DFTD3 V3.1  Rev 1                                
                              USING zero damping                               
-------------------------------------------------------------------------------
The omegaB97X-D3 functional is recognized. Fit by Chai et al.
Active option DFTDOPT                   ...         3   

molecular C6(AA) [au] = 14079.825978 


            DFT-D V3
 parameters
 s6 scaling factor         :     1.0000 
 rs6 scaling factor        :     1.2810 
 s8 scaling factor         :     1.0000 
 rs8 scaling factor        :     1.0940 
 Damping factor alpha6     :    14.0000 
 Damping factor alpha8     :    16.0000 
 ad hoc parameters k1-k3   :    16.0000     1.3333    -4.0000 

 Edisp/kcal,au: -9.198967616589  -0.014659486455 
 E6   /kcal   :  -4.181905590 
 E8   /kcal   :  -5.017062027 
 % E8         :  54.539403072 

-------------------------   ----------------
Dispersion correction           -0.014659486
-------------------------   ----------------


-------------------------   --------------------
FINAL SINGLE POINT ENERGY     -1339.852532114111
-------------------------   --------------------


                            ***************************************
                            *     ORCA property calculations      *
                            ***************************************

                                    ---------------------
                                    Active property flags
                                    ---------------------
   (+) Dipole Moment


------------------------------------------------------------------------------
                       ORCA ELECTRIC PROPERTIES CALCULATION
------------------------------------------------------------------------------

Dipole Moment Calculation                       ... on
Quadrupole Moment Calculation                   ... off
Polarizability Calculation                      ... off
GBWName                                         ... config_7125.gbw
Electron density file                           ... config_7125.scfp
The origin for moment calculation is the CENTER OF MASS  = (-133.194177, 33.608248 -134.592100)

-------------
DIPOLE MOMENT
-------------
                                X             Y             Z
Electronic contribution:    -25.52496      16.83585      -4.38850
Nuclear contribution   :     25.96697     -17.42069       4.61457
                        -----------------------------------------
Total Dipole Moment    :      0.44201      -0.58483       0.22607
                        -----------------------------------------
Magnitude (a.u.)       :      0.76715
Magnitude (Debye)      :      1.94993



--------------------
Rotational spectrum 
--------------------
 
Rotational constants in cm-1:     0.020358     0.009152     0.006652 
Rotational constants in MHz :   610.329296   274.381850   199.421786 

 Dipole components along the rotational axes: 
x,y,z [a.u.] :    -0.278425    -0.685049     0.204204 
x,y,z [Debye]:    -0.707700    -1.741256     0.519045 

 

Timings for individual modules:

Sum of individual times         ...       21.930 sec (=   0.365 min)
GTO integral calculation        ...        0.789 sec (=   0.013 min)   3.6 %
SCF iterations                  ...       21.141 sec (=   0.352 min)  96.4 %
                             ****ORCA TERMINATED NORMALLY****
TOTAL RUN TIME: 0 days 0 hours 0 minutes 22 seconds 630 msec
