
                                 *****************
                                 * O   R   C   A *
                                 *****************

           --- An Ab Initio, DFT and Semiempirical electronic structure package ---

                  #######################################################
                  #                        -***-                        #
                  #          Department of theory and spectroscopy      #
                  #               Directorship: Frank Neese             #
                  #        Max Planck Institute fuer Kohlenforschung    #
                  #                Kaiser Wilhelm Platz 1               #
                  #                 D-45470 Muelheim/Ruhr               #
                  #                      Germany                        #
                  #                                                     #
                  #                  All rights reserved                #
                  #                        -***-                        #
                  #######################################################


                         Program Version 4.2.1 -  RELEASE  -


 With contributions from (in alphabetic order):
   Daniel Aravena         : Magnetic Suceptibility
   Michael Atanasov       : Ab Initio Ligand Field Theory (pilot matlab implementation)
   Alexander A. Auer      : GIAO ZORA, VPT2
   Ute Becker             : Parallelization
   Giovanni Bistoni       : ED, misc. LED, open-shell LED, HFLD
   Martin Brehm           : Molecular dynamics
   Dmytro Bykov           : SCF Hessian
   Vijay G. Chilkuri      : MRCI spin determinant printing, contributions to CSF-ICE
   Dipayan Datta          : RHF DLPNO-CCSD density
   Achintya Kumar Dutta   : EOM-CC, STEOM-CC
   Dmitry Ganyushin       : Spin-Orbit,Spin-Spin,Magnetic field MRCI
   Miquel Garcia          : C-PCM Hessian, Gaussian charge scheme
   Yang Guo               : DLPNO-NEVPT2, CIM, IAO-localization
   Andreas Hansen         : Spin unrestricted coupled pair/coupled cluster methods
   Benjamin Helmich-Paris : CASSCF linear response (MC-RPA)
   Lee Huntington         : MR-EOM, pCC
   Robert Izsak           : Overlap fitted RIJCOSX, COSX-SCS-MP3, EOM
   Christian Kollmar      : KDIIS, OOCD, Brueckner-CCSD(T), CCSD density
   Simone Kossmann        : Meta GGA functionals, TD-DFT gradient, OOMP2, MP2 Hessian
   Martin Krupicka        : AUTO-CI
   Lucas Lang             : DCDCAS
   Dagmar Lenk            : GEPOL surface, SMD
   Dimitrios Liakos       : Extrapolation schemes; Compound Job, initial MDCI parallelization
   Dimitrios Manganas     : Further ROCIS development; embedding schemes
   Dimitrios Pantazis     : SARC Basis sets
   Taras Petrenko         : DFT Hessian,TD-DFT gradient, ASA, ECA, R-Raman, ABS, FL, XAS/XES, NRVS
   Peter Pinski           : DLPNO-MP2, DLPNO-MP2 Gradient
   Christoph Reimann      : Effective Core Potentials
   Marius Retegan         : Local ZFS, SOC
   Christoph Riplinger    : Optimizer, TS searches, QM/MM, DLPNO-CCSD(T), (RO)-DLPNO pert. Triples
   Tobias Risthaus        : Range-separated hybrids, TD-DFT gradient, RPA, STAB
   Michael Roemelt        : Original ROCIS implementation
   Masaaki Saitow         : Open-shell DLPNO-CCSD energy and density
   Barbara Sandhoefer     : DKH picture change effects
   Avijit Sen             : IP-ROCIS
   Kantharuban Sivalingam : CASSCF convergence, NEVPT2, FIC-MRCI
   Bernardo de Souza      : ESD, SOC TD-DFT
   Georgi Stoychev        : AutoAux, RI-MP2 NMR
   Willem Van den Heuvel  : Paramagnetic NMR
   Boris Wezisla          : Elementary symmetry handling
   Frank Wennmohs         : Technical directorship


 We gratefully acknowledge several colleagues who have allowed us to
 interface, adapt or use parts of their codes:
   Stefan Grimme, W. Hujo, H. Kruse,             : VdW corrections, initial TS optimization,
                  C. Bannwarth                     DFT functionals, gCP, sTDA/sTD-DF
   Ed Valeev, F. Pavosevic, A. Kumar             : LibInt (2-el integral package), F12 methods
   Garnet Chan, S. Sharma, J. Yang, R. Olivares  : DMRG
   Ulf Ekstrom                                   : XCFun DFT Library
   Mihaly Kallay                                 : mrcc  (arbitrary order and MRCC methods)
   Andreas Klamt, Michael Diedenhofen            : otool_cosmo (COSMO solvation model)
   Jiri Pittner, Ondrej Demel                    : Mk-CCSD
   Frank Weinhold                                : gennbo (NPA and NBO analysis)
   Christopher J. Cramer and Donald G. Truhlar   : smd solvation model
   Lars Goerigk                                  : TD-DFT with DH, B97 family of functionals
   V. Asgeirsson, H. Jonsson                     : NEB implementation
   FAccTs GmbH                                   : IRC, NEB, NEB-TS, Multilevel, MM, QM/MM, CI optimization
   S Lehtola, MJT Oliveira, MAL Marques          : LibXC Library


 Your calculation uses the libint2 library for the computation of 2-el integrals
 For citations please refer to: http://libint.valeyev.net

 Your ORCA version has been built with support for libXC version: 4.2.3
 For citations please refer to: https://tddft.org/programs/libxc/

 This ORCA versions uses:
   CBLAS   interface :  Fast vector & matrix operations
   LAPACKE interface :  Fast linear algebra routines
   SCALAPACK package :  Parallel linear algebra routines


Your calculation utilizes the atom-pairwise dispersion correction
with the zero-damping scheme (D30)
Cite in your paper:
S.Grimme, J.Antony, S.Ehrlich and H.Krieg, J.Chem.Phys., 132, (2010), 154104 
   

XCFun DFT library Copyright 2009-2010 Ulf Ekstrom and contributors.
See http://admol.org/xcfun for more information. This is free soft-
ware; see the source code for copying conditions. There is ABSOLUTELY
NO WARRANTY; not even for MERCHANTABILITY or FITNESS FOR A PARTICULAR
PURPOSE. For details see the documentation. Scientific users of this 
library should cite U. Ekstrom, L. Visscher, R. Bast, A. J. Thorvald-
sen and K. Ruud; J.Chem.Theor.Comp. 2010, DOI: 10.1021/ct100117s
XCFun Version 0.99 
----- Orbital basis set information -----
Your calculation utilizes the basis: def2-SVP
   F. Weigend and R. Ahlrichs, Phys. Chem. Chem. Phys. 7, 3297 (2005).

================================================================================
                                        WARNINGS
                       Please study these warnings very carefully!
================================================================================


INFO   : the flag for use of LIBINT has been found!

================================================================================
                                       INPUT FILE
================================================================================
NAME = config_4340.inp
|  1> ! wB97X-D3 SP def2-SVP
|  2> %pal
|  3> nprocs 24
|  4> end
|  5> 
|  6> * xyz 0 1
|  7> S 	 -109.916 	 60.5571 	 -73.3897 	 
|  8> C 	 -108.95 	 61.9128 	 -72.9483 	 
|  9> C 	 -109.633 	 63.0627 	 -72.5766 	 
| 10> C 	 -111.027 	 62.7589 	 -72.4929 	 
| 11> C 	 -111.314 	 61.3939 	 -72.7486 	 
| 12> H 	 -111.855 	 63.4181 	 -72.2757 	 
| 13> C 	 -109.015 	 64.4703 	 -72.4248 	 
| 14> H 	 -108.074 	 64.3485 	 -71.9571 	 
| 15> H 	 -109.59 	 65.0389 	 -71.7021 	 
| 16> C 	 -108.663 	 65.3611 	 -73.684 	 
| 17> H 	 -108.12 	 66.2452 	 -73.3065 	 
| 18> H 	 -107.79 	 64.9267 	 -74.1346 	 
| 19> C 	 -109.915 	 65.438 	 -74.675 	 
| 20> H 	 -109.702 	 66.0817 	 -75.5084 	 
| 21> H 	 -110.156 	 64.4717 	 -75.0751 	 
| 22> H 	 -110.774 	 65.8669 	 -74.1886 	 
| 23> S 	 -113.52 	 60.9631 	 -71.195 	 
| 24> C 	 -114.7 	 59.8221 	 -71.8149 	 
| 25> C 	 -114.554 	 59.4756 	 -73.1201 	 
| 26> C 	 -113.36 	 60.027 	 -73.7617 	 
| 27> C 	 -112.658 	 60.762 	 -72.7272 	 
| 28> H 	 -115.368 	 58.8606 	 -73.5675 	 
| 29> C 	 -113.048 	 59.9881 	 -75.256 	 
| 30> H 	 -112.053 	 60.3316 	 -75.5136 	 
| 31> H 	 -113.713 	 60.7264 	 -75.7196 	 
| 32> C 	 -113.336 	 58.5171 	 -75.8468 	 
| 33> H 	 -114.382 	 58.238 	 -75.8322 	 
| 34> H 	 -112.73 	 57.7923 	 -75.2878 	 
| 35> C 	 -112.894 	 58.405 	 -77.2846 	 
| 36> H 	 -113.694 	 58.7274 	 -77.9769 	 
| 37> H 	 -112.715 	 57.3751 	 -77.5638 	 
| 38> H 	 -112.036 	 58.9671 	 -77.5308 	 
| 39> H 	 -107.868 	 62.1313 	 -73.1806 	 
| 40> H 	 -115.544 	 59.4445 	 -71.2866 	 
| 41> *
| 42> 
| 43>                          ****END OF INPUT****
================================================================================

                       ****************************
                       * Single Point Calculation *
                       ****************************

---------------------------------
CARTESIAN COORDINATES (ANGSTROEM)
---------------------------------
  S    -109.916000   60.557100  -73.389700
  C    -108.950000   61.912800  -72.948300
  C    -109.633000   63.062700  -72.576600
  C    -111.027000   62.758900  -72.492900
  C    -111.314000   61.393900  -72.748600
  H    -111.855000   63.418100  -72.275700
  C    -109.015000   64.470300  -72.424800
  H    -108.074000   64.348500  -71.957100
  H    -109.590000   65.038900  -71.702100
  C    -108.663000   65.361100  -73.684000
  H    -108.120000   66.245200  -73.306500
  H    -107.790000   64.926700  -74.134600
  C    -109.915000   65.438000  -74.675000
  H    -109.702000   66.081700  -75.508400
  H    -110.156000   64.471700  -75.075100
  H    -110.774000   65.866900  -74.188600
  S    -113.520000   60.963100  -71.195000
  C    -114.700000   59.822100  -71.814900
  C    -114.554000   59.475600  -73.120100
  C    -113.360000   60.027000  -73.761700
  C    -112.658000   60.762000  -72.727200
  H    -115.368000   58.860600  -73.567500
  C    -113.048000   59.988100  -75.256000
  H    -112.053000   60.331600  -75.513600
  H    -113.713000   60.726400  -75.719600
  C    -113.336000   58.517100  -75.846800
  H    -114.382000   58.238000  -75.832200
  H    -112.730000   57.792300  -75.287800
  C    -112.894000   58.405000  -77.284600
  H    -113.694000   58.727400  -77.976900
  H    -112.715000   57.375100  -77.563800
  H    -112.036000   58.967100  -77.530800
  H    -107.868000   62.131300  -73.180600
  H    -115.544000   59.444500  -71.286600

----------------------------
CARTESIAN COORDINATES (A.U.)
----------------------------
  NO LB      ZA    FRAG     MASS         X           Y           Z
   0 S    16.0000    0    32.060  -207.711138  114.436334  -138.686434
   1 C     6.0000    0    12.011  -205.885662  116.998236  -137.852309
   2 C     6.0000    0    12.011  -207.176345  119.171232  -137.149898
   3 C     6.0000    0    12.011  -209.810623  118.597133  -136.991728
   4 C     6.0000    0    12.011  -210.352975  116.017657  -137.474931
   5 H     1.0000    0     1.008  -211.375317  119.842841  -136.581279
   6 C     6.0000    0    12.011  -206.008494  121.831211  -136.863037
   7 H     1.0000    0     1.008  -204.230262  121.601042  -135.979212
   8 H     1.0000    0     1.008  -207.095087  122.905709  -135.497332
   9 C     6.0000    0    12.011  -205.343311  123.514579  -139.242580
  10 H     1.0000    0     1.008  -204.317190  125.185286  -138.529209
  11 H     1.0000    0     1.008  -203.693580  122.693682  -140.094091
  12 C     6.0000    0    12.011  -207.709248  123.659899  -141.115299
  13 H     1.0000    0     1.008  -207.306736  124.876315  -142.690197
  14 H     1.0000    0     1.008  -208.164672  121.833856  -141.871378
  15 H     1.0000    0     1.008  -209.332523  124.470402  -140.196136
  16 S    16.0000    0    32.060  -214.521711  115.203563  -134.539052
  17 C     6.0000    0    12.011  -216.751588  113.047386  -135.710493
  18 C     6.0000    0    12.011  -216.475688  112.392596  -138.176964
  19 C     6.0000    0    12.011  -214.219355  113.434591  -139.389412
  20 C     6.0000    0    12.011  -212.892767  114.823539  -137.434490
  21 H     1.0000    0     1.008  -218.013925  111.230414  -139.022427
  22 C     6.0000    0    12.011  -213.629760  113.361080  -142.213230
  23 H     1.0000    0     1.008  -211.749482  114.010201  -142.700023
  24 H     1.0000    0     1.008  -214.886428  114.756265  -143.089307
  25 C     6.0000    0    12.011  -214.174001  110.581293  -143.329680
  26 H     1.0000    0     1.008  -216.150655  110.053871  -143.302090
  27 H     1.0000    0     1.008  -213.028827  109.211620  -142.273323
  28 C     6.0000    0    12.011  -213.338742  110.369455  -146.046728
  29 H     1.0000    0     1.008  -214.850523  110.978703  -147.354986
  30 H     1.0000    0     1.008  -213.000481  108.423226  -146.574340
  31 H     1.0000    0     1.008  -211.717357  111.431670  -146.511979
  32 H     1.0000    0     1.008  -203.840979  117.411141  -138.291292
  33 H     1.0000    0     1.008  -218.346516  112.333825  -134.712151

--------------------------------
INTERNAL COORDINATES (ANGSTROEM)
--------------------------------
 S      0   0   0     0.000000000000     0.00000000     0.00000000
 C      1   0   0     1.722182467104     0.00000000     0.00000000
 C      2   1   0     1.388135404058   116.40682243     0.00000000
 C      3   2   1     1.429173233027   108.63336342     7.45514966
 C      4   3   2     1.418089027530   113.04515827     2.48300138
 H      4   3   2     1.080418659595   129.01956202   183.04560848
 C      3   2   1     1.544766972718   125.75316155   193.41705104
 H      7   3   2     1.057856100800   107.12148962   319.15198484
 H      7   3   2     1.084539648883   109.33574246   207.35550311
 C      7   3   2     1.582091425930   121.59112558    76.42491522
 H     10   7   3     1.104077922975   106.74783546   187.30500491
 H     10   7   3     1.074184676860   106.67785284   286.73236900
 C     10   7   3     1.598592696718   110.25710463    50.17600834
 H     13  10   7     1.074371560495   110.75839304   177.11662960
 H     13  10   7     1.073264506075   111.32465655   296.21902198
 H     13  10   7     1.076299758432   111.35114439    59.84384936
 S      5   4   3     2.732342877459   102.27697352   149.04312575
 C     17   5   4     1.754581719385   116.39882931   146.66363797
 C     18  17   5     1.358280269311   115.66445844   346.63882679
 C     19  18  17     1.463327892169   114.38702173     5.07656940
 C     20  19  18     1.450247996034   105.85336974     2.17805159
 H     19  18  17     1.113996301610   116.62910166   187.84573819
 C     20  19  18     1.527019875444   125.88589442   189.96711167
 H     23  20  19     1.083685844699   114.33919328   187.85454919
 H     23  20  19     1.096465617336   105.82390187    73.94314513
 C     23  20  19     1.611157856946   110.21666435   314.37242020
 H     26  23  20     1.082693848694   113.77263948    66.43508924
 H     26  23  20     1.097748623320   108.50669175   302.52031685
 C     26  23  20     1.508376362186   111.40810194   186.27430460
 H     29  26  23     1.105993241390   111.28719291   272.63145817
 H     29  26  23     1.081983202273   111.41926230   157.51438489
 H     29  26  23     1.054862479189   114.91144967    33.99488157
 H      2   1   3     1.128020185990   129.62294434   199.51309447
 H     18  17   5     1.064903117659   126.03849929   171.47301793

---------------------------
INTERNAL COORDINATES (A.U.)
---------------------------
 S      0   0   0     0.000000000000     0.00000000     0.00000000
 C      1   0   0     3.254453215467     0.00000000     0.00000000
 C      2   1   0     2.623195750470   116.40682243     0.00000000
 C      3   2   1     2.700746008351   108.63336342     7.45514966
 C      4   3   2     2.679799895550   113.04515827     2.48300138
 H      4   3   2     2.041695376612   129.01956202   183.04560848
 C      3   2   1     2.919186519163   125.75316155   193.41705104
 H      7   3   2     1.999058319610   107.12148962   319.15198484
 H      7   3   2     2.049482917769   109.33574246   207.35550311
 C      7   3   2     2.989719513832   121.59112558    76.42491522
 H     10   7   3     2.086404904931   106.74783546   187.30500491
 H     10   7   3     2.029914856519   106.67785284   286.73236900
 C     10   7   3     3.020902396484   110.25710463    50.17600834
 H     13  10   7     2.030268015409   110.75839304   177.11662960
 H     13  10   7     2.028175985740   111.32465655   296.21902198
 H     13  10   7     2.033911781441   111.35114439    59.84384936
 S      5   4   3     5.163379742368   102.27697352   149.04312575
 C     17   5   4     3.315678929222   116.39882931   146.66363797
 C     18  17   5     2.566777722107   115.66445844   346.63882679
 C     19  18  17     2.765288960328   114.38702173     5.07656940
 C     20  19  18     2.740571538772   105.85336974     2.17805159
 H     19  18  17     2.105147924243   116.62910166   187.84573819
 C     20  19  18     2.885649365643   125.88589442   189.96711167
 H     23  20  19     2.047869461687   114.33919328   187.85454919
 H     23  20  19     2.072019732026   105.82390187    73.94314513
 C     23  20  19     3.044647108144   110.21666435   314.37242020
 H     26  23  20     2.045994860913   113.77263948    66.43508924
 H     26  23  20     2.074444261963   108.50669175   302.52031685
 C     26  23  20     2.850418231411   111.40810194   186.27430460
 H     29  26  23     2.090024332195   111.28719291   272.63145817
 H     29  26  23     2.044651933798   111.41926230   157.51438489
 H     29  26  23     1.993401194616   114.91144967    33.99488157
 H      2   1   3     2.131649225055   129.62294434   199.51309447
 H     18  17   5     2.012375251535   126.03849929   171.47301793

---------------------
BASIS SET INFORMATION
---------------------
There are 3 groups of distinct atoms

 Group   1 Type S   : 10s7p1d contracted to 4s3p1d pattern {5311/511/1}
 Group   2 Type C   : 7s4p1d contracted to 3s2p1d pattern {511/31/1}
 Group   3 Type H   : 4s1p contracted to 2s1p pattern {31/1}

Atom   0S    basis set group =>   1
Atom   1C    basis set group =>   2
Atom   2C    basis set group =>   2
Atom   3C    basis set group =>   2
Atom   4C    basis set group =>   2
Atom   5H    basis set group =>   3
Atom   6C    basis set group =>   2
Atom   7H    basis set group =>   3
Atom   8H    basis set group =>   3
Atom   9C    basis set group =>   2
Atom  10H    basis set group =>   3
Atom  11H    basis set group =>   3
Atom  12C    basis set group =>   2
Atom  13H    basis set group =>   3
Atom  14H    basis set group =>   3
Atom  15H    basis set group =>   3
Atom  16S    basis set group =>   1
Atom  17C    basis set group =>   2
Atom  18C    basis set group =>   2
Atom  19C    basis set group =>   2
Atom  20C    basis set group =>   2
Atom  21H    basis set group =>   3
Atom  22C    basis set group =>   2
Atom  23H    basis set group =>   3
Atom  24H    basis set group =>   3
Atom  25C    basis set group =>   2
Atom  26H    basis set group =>   3
Atom  27H    basis set group =>   3
Atom  28C    basis set group =>   2
Atom  29H    basis set group =>   3
Atom  30H    basis set group =>   3
Atom  31H    basis set group =>   3
Atom  32H    basis set group =>   3
Atom  33H    basis set group =>   3


           ************************************************************
           *        Program running with 24 parallel MPI-processes    *
           *              working on a common directory               *
           ************************************************************
------------------------------------------------------------------------------
                           ORCA GTO INTEGRAL CALCULATION
------------------------------------------------------------------------------

                         BASIS SET STATISTICS AND STARTUP INFO

 # of primitive gaussian shells          ...  294
 # of primitive gaussian functions       ...  534
 # of contracted shells                  ...  154
 # of contracted basis functions         ...  322
 Highest angular momentum                ...    2
 Maximum contraction depth               ...    5
 Integral package used                   ... LIBINT
 Integral threshhold            Thresh   ...  1.000e-10
 Primitive cut-off              TCut     ...  1.000e-11


------------------------------ INTEGRAL EVALUATION ----------------------------


 * One electron integrals 
 Pre-screening matrix                    ... done
 Shell pair data                         ... done (   0.003 sec)



           ************************************************************
           *        Program running with 24 parallel MPI-processes    *
           *              working on a common directory               *
           ************************************************************
-------------------------------------------------------------------------------
                                 ORCA SCF
-------------------------------------------------------------------------------

------------
SCF SETTINGS
------------
Hamiltonian:
 Density Functional     Method          .... DFT(GTOs)
 Exchange Functional    Exchange        .... WB97X-D3
 Correlation Functional Correlation     .... WB97X-D3
 Gradients option       PostSCFGGA      .... off
 Hybrid DFT is turned on
   Fraction HF Exchange ScalHFX         ....  0.195728
   Scaling of DF-GGA-X  ScalDFX         ....  0.000000
   Scaling of DF-GGA-C  ScalDFC         ....  1.000000
   Scaling of DF-LDA-C  ScalLDAC        ....  1.000000
   Perturbative correction              ....  0.000000
   Density functional embedding theory  .... OFF
 Long-range corrected/Screened/Range-Separated Hybrid DFT is turned on
   Amount of maximum screened exact exchange              ....  0.804272
   Range separation parameter mu (erf(mu*r12)/r12)        ....  0.250000


General Settings:
 Integral files         IntName         .... config_4340
 Hartree-Fock type      HFTyp           .... RHF
 Total Charge           Charge          ....    0
 Multiplicity           Mult            ....    1
 Number of Electrons    NEL             ....  134
 Basis Dimension        Dim             ....  322
 Nuclear Repulsion      ENuc            ....   1266.4032028628 Eh

Convergence Acceleration:
 DIIS                   CNVDIIS         .... on
   Start iteration      DIISMaxIt       ....    12
   Startup error        DIISStart       ....  0.200000
   # of expansion vecs  DIISMaxEq       ....     5
   Bias factor          DIISBfac        ....   1.050
   Max. coefficient     DIISMaxC        ....  10.000
 Newton-Raphson         CNVNR           .... off
 SOSCF                  CNVSOSCF        .... on
   Start iteration      SOSCFMaxIt      ....   150
   Startup grad/error   SOSCFStart      ....  0.003300
 Level Shifting         CNVShift        .... on
   Level shift para.    LevelShift      ....    0.2500
   Turn off err/grad.   ShiftErr        ....    0.0010
 Zerner damping         CNVZerner       .... off
 Static damping         CNVDamp         .... on
   Fraction old density DampFac         ....    0.7000
   Max. Damping (<1)    DampMax         ....    0.9800
   Min. Damping (>=0)   DampMin         ....    0.0000
   Turn off err/grad.   DampErr         ....    0.1000
 Fernandez-Rico         CNVRico         .... off

SCF Procedure:
 Maximum # iterations   MaxIter         ....   125
 SCF integral mode      SCFMode         .... Direct
   Integral package                     .... LIBINT
 Reset frequency        DirectResetFreq ....    20
 Integral Threshold     Thresh          ....  1.000e-10 Eh
 Primitive CutOff       TCut            ....  1.000e-11 Eh

Convergence Tolerance:
 Convergence Check Mode ConvCheckMode   .... Total+1el-Energy
 Convergence forced     ConvForced      .... 0
 Energy Change          TolE            ....  1.000e-06 Eh
 1-El. energy change                    ....  1.000e-03 Eh
 Orbital Gradient       TolG            ....  5.000e-05
 Orbital Rotation angle TolX            ....  5.000e-05
 DIIS Error             TolErr          ....  1.000e-06


Diagonalization of the overlap matrix:
Smallest eigenvalue                        ... 6.933e-04
Time for diagonalization                   ...    0.014 sec
Threshold for overlap eigenvalues          ... 1.000e-08
Number of eigenvalues below threshold      ... 0
Time for construction of square roots      ...    0.026 sec
Total time needed                          ...    0.040 sec

-------------------
DFT GRID GENERATION
-------------------

General Integration Accuracy     IntAcc      ...  4.340
Radial Grid Type                 RadialGrid  ... Gauss-Chebyshev
Angular Grid (max. acc.)         AngularGrid ... Lebedev-110
Angular grid pruning method      GridPruning ... 3 (G Style)
Weight generation scheme         WeightScheme... Becke
Basis function cutoff            BFCut       ...    1.0000e-10
Integration weight cutoff        WCut        ...    1.0000e-14
Grids for H and He will be reduced by one unit

# of grid points (after initial pruning)     ...  41088 (   0.0 sec)
# of grid points (after weights+screening)   ...  37100 (   0.0 sec)
nearest neighbour list constructed           ...    0.0 sec
Grid point re-assignment to atoms done       ...    0.0 sec
Grid point division into batches done        ...    0.0 sec
Reduced shell lists constructed in    0.1 sec

Total number of grid points                  ...    37100
Total number of batches                      ...      597
Average number of points per batch           ...       62
Average number of grid points per atom       ...     1091
Average number of shells per batch           ...    79.35 (51.52%)
Average number of basis functions per batch  ...   155.27 (48.22%)
Average number of large shells per batch     ...    52.42 (66.07%)
Average number of large basis fcns per batch ...   105.12 (67.70%)
Maximum spatial batch extension              ...  11.96, 13.56, 13.57 au
Average spatial batch extension              ...   0.14,  0.14,  0.15 au

Time for grid setup =    0.150 sec

------------------------------
INITIAL GUESS: MODEL POTENTIAL
------------------------------
Loading Hartree-Fock densities                     ... done
Calculating cut-offs                               ... done
Setting up the integral package                    ... done
Initializing the effective Hamiltonian             ... done
Starting the Coulomb interaction                   ... done (   0.0 sec)
Reading the grid                                   ... done
Mapping shells                                     ... done
Starting the XC term evaluation                    ... done (   0.0 sec)
  promolecular density results
     # of electrons  =    133.974222213
     EX              =   -126.641175036
     EC              =     -4.603391745
     EX+EC           =   -131.244566781
Transforming the Hamiltonian                       ... done (   0.0 sec)
Diagonalizing the Hamiltonian                      ... done (   0.0 sec)
Back transforming the eigenvectors                 ... done (   0.0 sec)
Now organizing SCF variables                       ... done
                      ------------------
                      INITIAL GUESS DONE (   0.3 sec)
                      ------------------
--------------
SCF ITERATIONS
--------------
ITER       Energy         Delta-E        Max-DP      RMS-DP      [F,P]     Damp
               ***  Starting incremental Fock matrix formation  ***
  0  -1339.4197467345   0.000000000000 0.06753830  0.00146229  0.1685591 0.7000
  1  -1339.5968079229  -0.177061188429 0.04524291  0.00108738  0.1018675 0.7000
                               ***Turning on DIIS***
  2  -1339.6850314973  -0.088223574333 0.08493942  0.00210591  0.0528643 0.0000
  3  -1339.8196163256  -0.134584828351 0.04448165  0.00085860  0.0378513 0.0000
  4  -1339.8466776210  -0.027061295411 0.00697247  0.00019389  0.0073036 0.0000
                      *** Initiating the SOSCF procedure ***
                           *** Shutting down DIIS ***
                      *** Re-Reading the Fockian *** 
                      *** Removing any level shift *** 
ITER      Energy       Delta-E        Grad      Rot      Max-DP    RMS-DP
  5  -1339.84755708  -0.0008794622  0.001906  0.001906  0.003350  0.000095
               *** Restarting incremental Fock matrix formation ***
  6  -1339.84774528  -0.0001882017  0.001551  0.004303  0.002196  0.000069
  7  -1339.84781411  -0.0000688247  0.000786  0.005369  0.003097  0.000074
  8  -1339.84783552  -0.0000214071  0.000492  0.000980  0.000771  0.000024
  9  -1339.84784164  -0.0000061268  0.000119  0.000410  0.000358  0.000008
 10  -1339.84784221  -0.0000005684  0.000049  0.000225  0.000142  0.000003
                  ***Gradient check signals convergence***
              ***Rediagonalizing the Fockian in SOSCF/NRSCF***

               *****************************************************
               *                     SUCCESS                       *
               *           SCF CONVERGED AFTER  11 CYCLES          *
               *****************************************************

Setting up the final grid:

General Integration Accuracy     IntAcc      ...  4.670
Radial Grid Type                 RadialGrid  ... Gauss-Chebyshev
Angular Grid (max. acc.)         AngularGrid ... Lebedev-302
Angular grid pruning method      GridPruning ... 3 (G Style)
Weight generation scheme         WeightScheme... Becke
Basis function cutoff            BFCut       ...    1.0000e-10
Integration weight cutoff        WCut        ...    1.0000e-14
Grids for H and He will be reduced by one unit

# of grid points (after initial pruning)     ... 161752 (   0.0 sec)
# of grid points (after weights+screening)   ... 143233 (   0.1 sec)
nearest neighbour list constructed           ...    0.0 sec
Grid point re-assignment to atoms done       ...    0.0 sec
Grid point division into batches done        ...    0.5 sec
Reduced shell lists constructed in    0.5 sec

Total number of grid points                  ...   143233
Total number of batches                      ...     2259
Average number of points per batch           ...       63
Average number of grid points per atom       ...     4213
Average number of shells per batch           ...    73.09 (47.46%)
Average number of basis functions per batch  ...   142.16 (44.15%)
Average number of large shells per batch     ...    46.60 (63.76%)
Average number of large basis fcns per batch ...    93.00 (65.42%)
Maximum spatial batch extension              ...  11.08, 12.59, 11.96 au
Average spatial batch extension              ...   0.09,  0.10,  0.10 au

Final grid set up in    0.8 sec
Final integration                            ... done (   0.3 sec)
Change in XC energy                          ...     0.005614730
Integrated number of electrons               ...   133.999911228
Previous integrated no of electrons          ...   133.993323700

----------------
TOTAL SCF ENERGY
----------------

Total Energy       :        -1339.84222768 Eh          -36458.96055 eV

Components:
Nuclear Repulsion  :         1266.40320286 Eh           34460.58309 eV
Electronic Energy  :        -2606.24543054 Eh          -70919.54365 eV
One Electron Energy:        -4349.58829204 Eh         -118358.31465 eV
Two Electron Energy:         1743.34286150 Eh           47438.77100 eV

Virial components:
Potential Energy   :        -2670.89862804 Eh          -72678.84659 eV
Kinetic Energy     :         1331.05640036 Eh           36219.88604 eV
Virial Ratio       :            2.00660064


DFT components:
N(Alpha)           :       66.999955614123 electrons
N(Beta)            :       66.999955614123 electrons
N(Total)           :      133.999911228246 electrons
E(XC)              :      -94.166706427722 Eh       
DFET-embed. en.    :        0.000000000000 Eh       

---------------
SCF CONVERGENCE
---------------

  Last Energy change         ...   -1.9817e-07  Tolerance :   1.0000e-06
  Last MAX-Density change    ...    3.0986e-05  Tolerance :   1.0000e-05
  Last RMS-Density change    ...    7.8449e-07  Tolerance :   1.0000e-06
  Last Orbital Gradient      ...    7.9649e-06  Tolerance :   5.0000e-05
  Last Orbital Rotation      ...    3.7414e-05  Tolerance :   5.0000e-05

             **** THE GBW FILE WAS UPDATED (config_4340.gbw) ****
             **** DENSITY FILE WAS UPDATED (config_4340.scfp) ****
             **** ENERGY FILE WAS UPDATED (config_4340.en.tmp) ****
             **** THE GBW FILE WAS UPDATED (config_4340.gbw) ****
             **** DENSITY FILE WAS UPDATED (config_4340.scfp) ****
----------------
ORBITAL ENERGIES
----------------

  NO   OCC          E(Eh)            E(eV) 
   0   2.0000     -88.972565     -2421.0666 
   1   2.0000     -88.968419     -2420.9538 
   2   2.0000     -10.332130      -281.1516 
   3   2.0000     -10.329025      -281.0670 
   4   2.0000     -10.315225      -280.6915 
   5   2.0000     -10.311315      -280.5852 
   6   2.0000     -10.309654      -280.5400 
   7   2.0000     -10.301751      -280.3249 
   8   2.0000     -10.301504      -280.3182 
   9   2.0000     -10.296248      -280.1751 
  10   2.0000     -10.295249      -280.1480 
  11   2.0000     -10.294065      -280.1157 
  12   2.0000     -10.291546      -280.0472 
  13   2.0000     -10.290472      -280.0180 
  14   2.0000     -10.278339      -279.6878 
  15   2.0000     -10.271290      -279.4960 
  16   2.0000      -8.086888      -220.0554 
  17   2.0000      -8.082595      -219.9386 
  18   2.0000      -6.045285      -164.5006 
  19   2.0000      -6.041656      -164.4018 
  20   2.0000      -6.041002      -164.3840 
  21   2.0000      -6.037599      -164.2914 
  22   2.0000      -6.037512      -164.2890 
  23   2.0000      -6.033175      -164.1710 
  24   2.0000      -0.999411       -27.1954 
  25   2.0000      -0.977644       -26.6031 
  26   2.0000      -0.903718       -24.5914 
  27   2.0000      -0.900107       -24.4932 
  28   2.0000      -0.860165       -23.4063 
  29   2.0000      -0.851579       -23.1726 
  30   2.0000      -0.843392       -22.9499 
  31   2.0000      -0.808834       -22.0095 
  32   2.0000      -0.786602       -21.4045 
  33   2.0000      -0.767310       -20.8796 
  34   2.0000      -0.710409       -19.3312 
  35   2.0000      -0.702861       -19.1258 
  36   2.0000      -0.692455       -18.8427 
  37   2.0000      -0.648191       -17.6382 
  38   2.0000      -0.628849       -17.1118 
  39   2.0000      -0.608336       -16.5537 
  40   2.0000      -0.593019       -16.1369 
  41   2.0000      -0.567391       -15.4395 
  42   2.0000      -0.564608       -15.3638 
  43   2.0000      -0.541636       -14.7387 
  44   2.0000      -0.534922       -14.5560 
  45   2.0000      -0.526135       -14.3169 
  46   2.0000      -0.515180       -14.0188 
  47   2.0000      -0.500259       -13.6128 
  48   2.0000      -0.498824       -13.5737 
  49   2.0000      -0.486147       -13.2287 
  50   2.0000      -0.484414       -13.1816 
  51   2.0000      -0.470840       -12.8122 
  52   2.0000      -0.468072       -12.7369 
  53   2.0000      -0.464891       -12.6503 
  54   2.0000      -0.463106       -12.6018 
  55   2.0000      -0.454382       -12.3644 
  56   2.0000      -0.443729       -12.0745 
  57   2.0000      -0.442263       -12.0346 
  58   2.0000      -0.436708       -11.8834 
  59   2.0000      -0.426609       -11.6086 
  60   2.0000      -0.423325       -11.5193 
  61   2.0000      -0.421941       -11.4816 
  62   2.0000      -0.414342       -11.2748 
  63   2.0000      -0.342782        -9.3276 
  64   2.0000      -0.332235        -9.0406 
  65   2.0000      -0.327167        -8.9027 
  66   2.0000      -0.282228        -7.6798 
  67   0.0000       0.028213         0.7677 
  68   0.0000       0.067978         1.8498 
  69   0.0000       0.094784         2.5792 
  70   0.0000       0.118079         3.2131 
  71   0.0000       0.134883         3.6704 
  72   0.0000       0.136830         3.7233 
  73   0.0000       0.150481         4.0948 
  74   0.0000       0.155751         4.2382 
  75   0.0000       0.162442         4.4203 
  76   0.0000       0.170471         4.6388 
  77   0.0000       0.184876         5.0307 
  78   0.0000       0.191016         5.1978 
  79   0.0000       0.192539         5.2393 
  80   0.0000       0.198132         5.3914 
  81   0.0000       0.202736         5.5167 
  82   0.0000       0.205971         5.6048 
  83   0.0000       0.213907         5.8207 
  84   0.0000       0.226815         6.1719 
  85   0.0000       0.230173         6.2633 
  86   0.0000       0.234404         6.3784 
  87   0.0000       0.243115         6.6155 
  88   0.0000       0.246800         6.7158 
  89   0.0000       0.251394         6.8408 
  90   0.0000       0.258915         7.0454 
  91   0.0000       0.267514         7.2794 
  92   0.0000       0.278519         7.5789 
  93   0.0000       0.286225         7.7886 
  94   0.0000       0.297105         8.0846 
  95   0.0000       0.301146         8.1946 
  96   0.0000       0.319619         8.6973 
  97   0.0000       0.328527         8.9397 
  98   0.0000       0.338879         9.2214 
  99   0.0000       0.352521         9.5926 
 100   0.0000       0.376386        10.2420 
 101   0.0000       0.382963        10.4210 
 102   0.0000       0.394897        10.7457 
 103   0.0000       0.419009        11.4018 
 104   0.0000       0.427859        11.6426 
 105   0.0000       0.446239        12.1428 
 106   0.0000       0.464830        12.6487 
 107   0.0000       0.469369        12.7722 
 108   0.0000       0.477069        12.9817 
 109   0.0000       0.493531        13.4296 
 110   0.0000       0.497937        13.5496 
 111   0.0000       0.508887        13.8475 
 112   0.0000       0.518109        14.0985 
 113   0.0000       0.519972        14.1492 
 114   0.0000       0.533554        14.5187 
 115   0.0000       0.541172        14.7260 
 116   0.0000       0.545963        14.8564 
 117   0.0000       0.553395        15.0586 
 118   0.0000       0.568534        15.4706 
 119   0.0000       0.574210        15.6250 
 120   0.0000       0.576746        15.6941 
 121   0.0000       0.589964        16.0537 
 122   0.0000       0.599905        16.3243 
 123   0.0000       0.605068        16.4647 
 124   0.0000       0.618680        16.8351 
 125   0.0000       0.627890        17.0858 
 126   0.0000       0.630639        17.1606 
 127   0.0000       0.641540        17.4572 
 128   0.0000       0.652378        17.7521 
 129   0.0000       0.661603        18.0031 
 130   0.0000       0.669789        18.2259 
 131   0.0000       0.679394        18.4873 
 132   0.0000       0.684948        18.6384 
 133   0.0000       0.693604        18.8739 
 134   0.0000       0.696552        18.9541 
 135   0.0000       0.711562        19.3626 
 136   0.0000       0.713723        19.4214 
 137   0.0000       0.721022        19.6200 
 138   0.0000       0.728265        19.8171 
 139   0.0000       0.732901        19.9433 
 140   0.0000       0.737864        20.0783 
 141   0.0000       0.748158        20.3584 
 142   0.0000       0.748873        20.3779 
 143   0.0000       0.759602        20.6698 
 144   0.0000       0.761646        20.7255 
 145   0.0000       0.765817        20.8389 
 146   0.0000       0.774600        21.0779 
 147   0.0000       0.777041        21.1444 
 148   0.0000       0.783921        21.3316 
 149   0.0000       0.786835        21.4109 
 150   0.0000       0.790927        21.5222 
 151   0.0000       0.793146        21.5826 
 152   0.0000       0.798207        21.7203 
 153   0.0000       0.800198        21.7745 
 154   0.0000       0.802047        21.8248 
 155   0.0000       0.806804        21.9542 
 156   0.0000       0.808529        22.0012 
 157   0.0000       0.813613        22.1395 
 158   0.0000       0.819968        22.3125 
 159   0.0000       0.822288        22.3756 
 160   0.0000       0.827937        22.5293 
 161   0.0000       0.830902        22.6100 
 162   0.0000       0.833464        22.6797 
 163   0.0000       0.839218        22.8363 
 164   0.0000       0.848903        23.0998 
 165   0.0000       0.851225        23.1630 
 166   0.0000       0.863789        23.5049 
 167   0.0000       0.872629        23.7454 
 168   0.0000       0.881761        23.9939 
 169   0.0000       0.889795        24.2125 
 170   0.0000       0.895253        24.3611 
 171   0.0000       0.909670        24.7534 
 172   0.0000       0.914971        24.8976 
 173   0.0000       0.940720        25.5983 
 174   0.0000       0.953506        25.9462 
 175   0.0000       0.961974        26.1766 
 176   0.0000       0.967467        26.3261 
 177   0.0000       0.988287        26.8927 
 178   0.0000       0.995805        27.0972 
 179   0.0000       1.002476        27.2788 
 180   0.0000       1.054720        28.7004 
 181   0.0000       1.059353        28.8265 
 182   0.0000       1.081023        29.4161 
 183   0.0000       1.105788        30.0900 
 184   0.0000       1.131685        30.7947 
 185   0.0000       1.138336        30.9757 
 186   0.0000       1.143368        31.1126 
 187   0.0000       1.156008        31.4566 
 188   0.0000       1.163893        31.6711 
 189   0.0000       1.178669        32.0732 
 190   0.0000       1.215005        33.0620 
 191   0.0000       1.229447        33.4549 
 192   0.0000       1.252553        34.0837 
 193   0.0000       1.267563        34.4922 
 194   0.0000       1.282299        34.8931 
 195   0.0000       1.289091        35.0780 
 196   0.0000       1.324952        36.0538 
 197   0.0000       1.332676        36.2639 
 198   0.0000       1.344106        36.5750 
 199   0.0000       1.354938        36.8697 
 200   0.0000       1.373200        37.3667 
 201   0.0000       1.397002        38.0144 
 202   0.0000       1.408462        38.3262 
 203   0.0000       1.417100        38.5613 
 204   0.0000       1.431923        38.9646 
 205   0.0000       1.452348        39.5204 
 206   0.0000       1.482111        40.3303 
 207   0.0000       1.487656        40.4812 
 208   0.0000       1.516720        41.2720 
 209   0.0000       1.551270        42.2122 
 210   0.0000       1.575698        42.8769 
 211   0.0000       1.582755        43.0690 
 212   0.0000       1.632603        44.4254 
 213   0.0000       1.643207        44.7139 
 214   0.0000       1.656414        45.0733 
 215   0.0000       1.665447        45.3191 
 216   0.0000       1.667328        45.3703 
 217   0.0000       1.686191        45.8836 
 218   0.0000       1.735450        47.2240 
 219   0.0000       1.748308        47.5739 
 220   0.0000       1.771980        48.2180 
 221   0.0000       1.785688        48.5910 
 222   0.0000       1.791838        48.7584 
 223   0.0000       1.803487        49.0754 
 224   0.0000       1.816206        49.4215 
 225   0.0000       1.826269        49.6953 
 226   0.0000       1.832473        49.8641 
 227   0.0000       1.840774        50.0900 
 228   0.0000       1.844249        50.1846 
 229   0.0000       1.855148        50.4811 
 230   0.0000       1.867903        50.8282 
 231   0.0000       1.875032        51.0222 
 232   0.0000       1.881118        51.1878 
 233   0.0000       1.883607        51.2556 
 234   0.0000       1.901138        51.7326 
 235   0.0000       1.907287        51.8999 
 236   0.0000       1.918080        52.1936 
 237   0.0000       1.925135        52.3856 
 238   0.0000       1.926912        52.4339 
 239   0.0000       1.940168        52.7947 
 240   0.0000       1.944575        52.9146 
 241   0.0000       1.961167        53.3661 
 242   0.0000       1.963389        53.4265 
 243   0.0000       1.974610        53.7319 
 244   0.0000       1.975204        53.7480 
 245   0.0000       1.994285        54.2673 
 246   0.0000       2.004658        54.5495 
 247   0.0000       2.013067        54.7783 
 248   0.0000       2.024836        55.0986 
 249   0.0000       2.041136        55.5421 
 250   0.0000       2.045268        55.6546 
 251   0.0000       2.055279        55.9270 
 252   0.0000       2.063561        56.1524 
 253   0.0000       2.077009        56.5183 
 254   0.0000       2.083910        56.7061 
 255   0.0000       2.088630        56.8345 
 256   0.0000       2.118302        57.6419 
 257   0.0000       2.131715        58.0069 
 258   0.0000       2.137603        58.1671 
 259   0.0000       2.145276        58.3759 
 260   0.0000       2.176009        59.2122 
 261   0.0000       2.180594        59.3370 
 262   0.0000       2.192676        59.6657 
 263   0.0000       2.209329        60.1189 
 264   0.0000       2.221492        60.4499 
 265   0.0000       2.234427        60.8018 
 266   0.0000       2.248076        61.1733 
 267   0.0000       2.271471        61.8099 
 268   0.0000       2.280216        62.0478 
 269   0.0000       2.299692        62.5778 
 270   0.0000       2.300853        62.6094 
 271   0.0000       2.336478        63.5788 
 272   0.0000       2.341780        63.7231 
 273   0.0000       2.381575        64.8060 
 274   0.0000       2.408945        65.5507 
 275   0.0000       2.411662        65.6247 
 276   0.0000       2.420561        65.8668 
 277   0.0000       2.437822        66.3365 
 278   0.0000       2.451514        66.7091 
 279   0.0000       2.455731        66.8238 
 280   0.0000       2.496576        67.9353 
 281   0.0000       2.499805        68.0231 
 282   0.0000       2.519466        68.5582 
 283   0.0000       2.528662        68.8084 
 284   0.0000       2.545385        69.2634 
 285   0.0000       2.553397        69.4815 
 286   0.0000       2.560120        69.6644 
 287   0.0000       2.580999        70.2326 
 288   0.0000       2.598555        70.7103 
 289   0.0000       2.617954        71.2381 
 290   0.0000       2.621875        71.3448 
 291   0.0000       2.665727        72.5381 
 292   0.0000       2.676550        72.8326 
 293   0.0000       2.679223        72.9054 
 294   0.0000       2.705240        73.6133 
 295   0.0000       2.716170        73.9107 
 296   0.0000       2.732751        74.3619 
 297   0.0000       2.756823        75.0170 
 298   0.0000       2.759976        75.1028 
 299   0.0000       2.797180        76.1151 
 300   0.0000       2.845391        77.4270 
 301   0.0000       2.862976        77.9055 
 302   0.0000       2.893203        78.7281 
 303   0.0000       2.906319        79.0850 
 304   0.0000       2.939478        79.9873 
 305   0.0000       2.949708        80.2656 
 306   0.0000       2.967329        80.7451 
 307   0.0000       3.011563        81.9488 
 308   0.0000       3.032211        82.5107 
 309   0.0000       3.053830        83.0989 
 310   0.0000       3.065540        83.4176 
 311   0.0000       3.086723        83.9940 
 312   0.0000       3.095293        84.2272 
 313   0.0000       3.107189        84.5509 
 314   0.0000       3.121331        84.9357 
 315   0.0000       3.147612        85.6509 
 316   0.0000       3.159565        85.9761 
 317   0.0000       3.177174        86.4553 
 318   0.0000       3.203558        87.1733 
 319   0.0000       3.233969        88.0008 
 320   0.0000       3.334948        90.7485 
 321   0.0000       3.375520        91.8526 

                    ********************************
                    * MULLIKEN POPULATION ANALYSIS *
                    ********************************

-----------------------
MULLIKEN ATOMIC CHARGES
-----------------------
   0 S :    0.138705
   1 C :   -0.119855
   2 C :   -0.101558
   3 C :    0.012804
   4 C :   -0.162342
   5 H :    0.012031
   6 C :    0.061329
   7 H :    0.010209
   8 H :    0.026242
   9 C :   -0.055257
  10 H :    0.027239
  11 H :    0.008457
  12 C :   -0.030852
  13 H :    0.028623
  14 H :    0.047719
  15 H :    0.032225
  16 S :    0.119729
  17 C :   -0.071956
  18 C :   -0.057940
  19 C :   -0.025600
  20 C :   -0.186054
  21 H :    0.033199
  22 C :    0.075469
  23 H :    0.018385
  24 H :    0.047486
  25 C :   -0.107494
  26 H :    0.037959
  27 H :    0.042649
  28 C :   -0.025863
  29 H :    0.025872
  30 H :    0.026943
  31 H :    0.019526
  32 H :    0.053769
  33 H :    0.038203
Sum of atomic charges:   -0.0000000

--------------------------------
MULLIKEN REDUCED ORBITAL CHARGES
--------------------------------
  0 S s       :     5.838354  s :     5.838354
      pz      :     3.560493  p :     9.911807
      px      :     2.980571
      py      :     3.370743
      dz2     :     0.011187  d :     0.111134
      dxz     :     0.027995
      dyz     :     0.013667
      dx2y2   :     0.019416
      dxy     :     0.038869
  1 C s       :     3.159044  s :     3.159044
      pz      :     1.064554  p :     2.925914
      px      :     0.940662
      py      :     0.920697
      dz2     :     0.004028  d :     0.034898
      dxz     :     0.004103
      dyz     :     0.006839
      dx2y2   :     0.009358
      dxy     :     0.010570
  2 C s       :     3.089119  s :     3.089119
      pz      :     0.995792  p :     2.969457
      px      :     0.995069
      py      :     0.978595
      dz2     :     0.003784  d :     0.042983
      dxz     :     0.006837
      dyz     :     0.006782
      dx2y2   :     0.013550
      dxy     :     0.012030
  3 C s       :     3.209023  s :     3.209023
      pz      :     1.012221  p :     2.744898
      px      :     0.873558
      py      :     0.859120
      dz2     :     0.002800  d :     0.033275
      dxz     :     0.005345
      dyz     :     0.004831
      dx2y2   :     0.010693
      dxy     :     0.009606
  4 C s       :     3.089376  s :     3.089376
      pz      :     1.073754  p :     3.029963
      px      :     0.980251
      py      :     0.975958
      dz2     :     0.004544  d :     0.043002
      dxz     :     0.006064
      dyz     :     0.006554
      dx2y2   :     0.011503
      dxy     :     0.014338
  5 H s       :     0.963932  s :     0.963932
      pz      :     0.005759  p :     0.024037
      px      :     0.010551
      py      :     0.007728
  6 C s       :     2.961080  s :     2.961080
      pz      :     1.013577  p :     2.943179
      px      :     0.994093
      py      :     0.935509
      dz2     :     0.004609  d :     0.034412
      dxz     :     0.008344
      dyz     :     0.008174
      dx2y2   :     0.007475
      dxy     :     0.005809
  7 H s       :     0.964905  s :     0.964905
      pz      :     0.007294  p :     0.024886
      px      :     0.012703
      py      :     0.004889
  8 H s       :     0.950457  s :     0.950457
      pz      :     0.008669  p :     0.023300
      px      :     0.008046
      py      :     0.006585
  9 C s       :     3.055805  s :     3.055805
      pz      :     0.974667  p :     2.965632
      px      :     0.979524
      py      :     1.011441
      dz2     :     0.005199  d :     0.033820
      dxz     :     0.009300
      dyz     :     0.007046
      dx2y2   :     0.004750
      dxy     :     0.007526
 10 H s       :     0.949818  s :     0.949818
      pz      :     0.005325  p :     0.022943
      px      :     0.006608
      py      :     0.011011
 11 H s       :     0.967532  s :     0.967532
      pz      :     0.006098  p :     0.024011
      px      :     0.010197
      py      :     0.007716
 12 C s       :     3.010027  s :     3.010027
      pz      :     0.995187  p :     2.994165
      px      :     0.973557
      py      :     1.025421
      dz2     :     0.003229  d :     0.026660
      dxz     :     0.006195
      dyz     :     0.007255
      dx2y2   :     0.005913
      dxy     :     0.004067
 13 H s       :     0.946756  s :     0.946756
      pz      :     0.010437  p :     0.024620
      px      :     0.005271
      py      :     0.008912
 14 H s       :     0.927475  s :     0.927475
      pz      :     0.006074  p :     0.024806
      px      :     0.004897
      py      :     0.013835
 15 H s       :     0.943576  s :     0.943576
      pz      :     0.006894  p :     0.024199
      px      :     0.010442
      py      :     0.006863
 16 S s       :     5.848631  s :     5.848631
      pz      :     3.310557  p :     9.928552
      px      :     3.166362
      py      :     3.451632
      dz2     :     0.022954  d :     0.103088
      dxz     :     0.025993
      dyz     :     0.015343
      dx2y2   :     0.015591
      dxy     :     0.023206
 17 C s       :     3.121670  s :     3.121670
      pz      :     0.998900  p :     2.914090
      px      :     0.946637
      py      :     0.968553
      dz2     :     0.008421  d :     0.036196
      dxz     :     0.010058
      dyz     :     0.007649
      dx2y2   :     0.004784
      dxy     :     0.005284
 18 C s       :     3.181658  s :     3.181658
      pz      :     0.929318  p :     2.841181
      px      :     0.933050
      py      :     0.978812
      dz2     :     0.009377  d :     0.035100
      dxz     :     0.008898
      dyz     :     0.007140
      dx2y2   :     0.004112
      dxy     :     0.005574
 19 C s       :     3.091062  s :     3.091062
      pz      :     0.941521  p :     2.895252
      px      :     0.971350
      py      :     0.982381
      dz2     :     0.009247  d :     0.039286
      dxz     :     0.011250
      dyz     :     0.008615
      dx2y2   :     0.005835
      dxy     :     0.004338
 20 C s       :     3.100227  s :     3.100227
      pz      :     0.926974  p :     3.044661
      px      :     1.019249
      py      :     1.098438
      dz2     :     0.009967  d :     0.041167
      dxz     :     0.012679
      dyz     :     0.006023
      dx2y2   :     0.006002
      dxy     :     0.006496
 21 H s       :     0.944341  s :     0.944341
      pz      :     0.005163  p :     0.022459
      px      :     0.009513
      py      :     0.007784
 22 C s       :     2.970234  s :     2.970234
      pz      :     0.935900  p :     2.921590
      px      :     1.009114
      py      :     0.976576
      dz2     :     0.009155  d :     0.032707
      dxz     :     0.004566
      dyz     :     0.006761
      dx2y2   :     0.005196
      dxy     :     0.007028
 23 H s       :     0.957871  s :     0.957871
      pz      :     0.004129  p :     0.023745
      px      :     0.014418
      py      :     0.005198
 24 H s       :     0.929435  s :     0.929435
      pz      :     0.005925  p :     0.023079
      px      :     0.008859
      py      :     0.008295
 25 C s       :     3.086037  s :     3.086037
      pz      :     0.993993  p :     2.986669
      px      :     1.018155
      py      :     0.974520
      dz2     :     0.008915  d :     0.034788
      dxz     :     0.005508
      dyz     :     0.007657
      dx2y2   :     0.006743
      dxy     :     0.005966
 26 H s       :     0.939451  s :     0.939451
      pz      :     0.004578  p :     0.022590
      px      :     0.013687
      py      :     0.004325
 27 H s       :     0.934975  s :     0.934975
      pz      :     0.006948  p :     0.022376
      px      :     0.007541
      py      :     0.007887
 28 C s       :     2.973777  s :     2.973777
      pz      :     0.974285  p :     3.022266
      px      :     1.029179
      py      :     1.018803
      dz2     :     0.007008  d :     0.029819
      dxz     :     0.008081
      dyz     :     0.004951
      dx2y2   :     0.005167
      dxy     :     0.004611
 29 H s       :     0.950916  s :     0.950916
      pz      :     0.007533  p :     0.023213
      px      :     0.009617
      py      :     0.006063
 30 H s       :     0.948679  s :     0.948679
      pz      :     0.005013  p :     0.024378
      px      :     0.005625
      py      :     0.013740
 31 H s       :     0.955124  s :     0.955124
      pz      :     0.005013  p :     0.025350
      px      :     0.011998
      py      :     0.008339
 32 H s       :     0.923675  s :     0.923675
      pz      :     0.005099  p :     0.022557
      px      :     0.013706
      py      :     0.003751
 33 H s       :     0.937184  s :     0.937184
      pz      :     0.006874  p :     0.024613
      px      :     0.011639
      py      :     0.006099


                     *******************************
                     * LOEWDIN POPULATION ANALYSIS *
                     *******************************

----------------------
LOEWDIN ATOMIC CHARGES
----------------------
   0 S :    0.429822
   1 C :   -0.222910
   2 C :   -0.065876
   3 C :   -0.065616
   4 C :   -0.201649
   5 H :    0.027586
   6 C :   -0.031642
   7 H :    0.026477
   8 H :    0.027631
   9 C :   -0.038522
  10 H :    0.029886
  11 H :    0.017244
  12 C :   -0.058180
  13 H :    0.023466
  14 H :    0.029219
  15 H :    0.024259
  16 S :    0.401228
  17 C :   -0.185852
  18 C :   -0.074832
  19 C :   -0.051577
  20 C :   -0.194330
  21 H :    0.038598
  22 C :   -0.026770
  23 H :    0.023083
  24 H :    0.039419
  25 C :   -0.036779
  26 H :    0.024340
  27 H :    0.028451
  28 C :   -0.066310
  29 H :    0.026695
  30 H :    0.025824
  31 H :    0.017070
  32 H :    0.037543
  33 H :    0.023006

-------------------------------
LOEWDIN REDUCED ORBITAL CHARGES
-------------------------------
  0 S s       :     5.500415  s :     5.500415
      pz      :     3.536980  p :     9.931313
      px      :     2.995870
      py      :     3.398464
      dz2     :     0.012959  d :     0.138449
      dxz     :     0.035422
      dyz     :     0.014884
      dx2y2   :     0.024155
      dxy     :     0.051029
  1 C s       :     2.939304  s :     2.939304
      pz      :     1.091031  p :     3.201459
      px      :     1.058504
      py      :     1.051924
      dz2     :     0.008180  d :     0.082147
      dxz     :     0.008109
      dyz     :     0.014558
      dx2y2   :     0.024486
      dxy     :     0.026814
  2 C s       :     2.869543  s :     2.869543
      pz      :     0.986595  p :     3.090602
      px      :     1.056719
      py      :     1.047288
      dz2     :     0.008309  d :     0.105731
      dxz     :     0.014435
      dyz     :     0.013807
      dx2y2   :     0.036540
      dxy     :     0.032640
  3 C s       :     2.876059  s :     2.876059
      pz      :     1.024850  p :     3.102159
      px      :     1.042896
      py      :     1.034414
      dz2     :     0.006293  d :     0.087397
      dxz     :     0.010907
      dyz     :     0.010354
      dx2y2   :     0.032432
      dxy     :     0.027412
  4 C s       :     2.926542  s :     2.926542
      pz      :     1.075488  p :     3.174768
      px      :     1.023234
      py      :     1.076046
      dz2     :     0.009696  d :     0.100339
      dxz     :     0.013255
      dyz     :     0.013325
      dx2y2   :     0.029670
      dxy     :     0.034392
  5 H s       :     0.900809  s :     0.900809
      pz      :     0.017540  p :     0.071605
      px      :     0.031032
      py      :     0.023033
  6 C s       :     2.828624  s :     2.828624
      pz      :     1.043447  p :     3.118265
      px      :     1.066619
      py      :     1.008199
      dz2     :     0.011157  d :     0.084754
      dxz     :     0.019277
      dyz     :     0.020584
      dx2y2   :     0.018477
      dxy     :     0.015258
  7 H s       :     0.898763  s :     0.898763
      pz      :     0.022645  p :     0.074760
      px      :     0.036512
      py      :     0.015604
  8 H s       :     0.903829  s :     0.903829
      pz      :     0.026961  p :     0.068540
      px      :     0.021344
      py      :     0.020236
  9 C s       :     2.850209  s :     2.850209
      pz      :     1.021174  p :     3.109002
      px      :     1.026322
      py      :     1.061506
      dz2     :     0.010907  d :     0.079311
      dxz     :     0.023002
      dyz     :     0.016964
      dx2y2   :     0.011465
      dxy     :     0.016973
 10 H s       :     0.902875  s :     0.902875
      pz      :     0.016236  p :     0.067239
      px      :     0.020290
      py      :     0.030713
 11 H s       :     0.910552  s :     0.910552
      pz      :     0.019283  p :     0.072204
      px      :     0.031712
      py      :     0.021209
 12 C s       :     2.831137  s :     2.831137
      pz      :     1.048954  p :     3.159415
      px      :     1.033563
      py      :     1.076899
      dz2     :     0.007085  d :     0.067628
      dxz     :     0.017639
      dyz     :     0.018125
      dx2y2   :     0.015321
      dxy     :     0.009458
 13 H s       :     0.907281  s :     0.907281
      pz      :     0.030216  p :     0.069254
      px      :     0.015259
      py      :     0.023778
 14 H s       :     0.900864  s :     0.900864
      pz      :     0.018018  p :     0.069917
      px      :     0.014707
      py      :     0.037192
 15 H s       :     0.907184  s :     0.907184
      pz      :     0.019256  p :     0.068557
      px      :     0.030953
      py      :     0.018348
 16 S s       :     5.525396  s :     5.525396
      pz      :     3.340637  p :     9.946444
      px      :     3.164475
      py      :     3.441332
      dz2     :     0.027993  d :     0.126933
      dxz     :     0.033344
      dyz     :     0.017020
      dx2y2   :     0.018519
      dxy     :     0.030057
 17 C s       :     2.921085  s :     2.921085
      pz      :     1.097238  p :     3.179267
      px      :     1.047722
      py      :     1.034307
      dz2     :     0.022695  d :     0.085500
      dxz     :     0.024008
      dyz     :     0.017494
      dx2y2   :     0.010104
      dxy     :     0.011198
 18 C s       :     2.877704  s :     2.877704
      pz      :     1.062334  p :     3.107587
      px      :     1.022123
      py      :     1.023130
      dz2     :     0.026110  d :     0.089542
      dxz     :     0.023910
      dyz     :     0.017955
      dx2y2   :     0.008741
      dxy     :     0.012825
 19 C s       :     2.883042  s :     2.883042
      pz      :     1.035853  p :     3.072649
      px      :     1.026162
      py      :     1.010634
      dz2     :     0.023139  d :     0.095885
      dxz     :     0.028789
      dyz     :     0.020448
      dx2y2   :     0.012609
      dxy     :     0.010900
 20 C s       :     2.930008  s :     2.930008
      pz      :     1.029185  p :     3.167896
      px      :     1.050182
      py      :     1.088528
      dz2     :     0.023604  d :     0.096426
      dxz     :     0.029548
      dyz     :     0.014013
      dx2y2   :     0.013865
      dxy     :     0.015396
 21 H s       :     0.896174  s :     0.896174
      pz      :     0.014890  p :     0.065228
      px      :     0.028059
      py      :     0.022280
 22 C s       :     2.841318  s :     2.841318
      pz      :     1.000673  p :     3.104367
      px      :     1.077881
      py      :     1.025813
      dz2     :     0.024028  d :     0.081085
      dxz     :     0.011529
      dyz     :     0.015861
      dx2y2   :     0.013791
      dxy     :     0.015876
 23 H s       :     0.907241  s :     0.907241
      pz      :     0.013872  p :     0.069676
      px      :     0.039097
      py      :     0.016707
 24 H s       :     0.893162  s :     0.893162
      pz      :     0.017854  p :     0.067420
      px      :     0.023480
      py      :     0.026085
 25 C s       :     2.842258  s :     2.842258
      pz      :     1.034904  p :     3.110970
      px      :     1.064196
      py      :     1.011870
      dz2     :     0.021903  d :     0.083552
      dxz     :     0.012637
      dyz     :     0.018082
      dx2y2   :     0.017621
      dxy     :     0.013309
 26 H s       :     0.906935  s :     0.906935
      pz      :     0.014557  p :     0.068725
      px      :     0.039253
      py      :     0.014915
 27 H s       :     0.905342  s :     0.905342
      pz      :     0.020460  p :     0.066207
      px      :     0.020958
      py      :     0.024789
 28 C s       :     2.820650  s :     2.820650
      pz      :     1.025888  p :     3.169632
      px      :     1.071387
      py      :     1.072357
      dz2     :     0.019341  d :     0.076029
      dxz     :     0.019764
      dyz     :     0.011277
      dx2y2   :     0.013312
      dxy     :     0.012335
 29 H s       :     0.909850  s :     0.909850
      pz      :     0.022630  p :     0.063455
      px      :     0.025613
      py      :     0.015212
 30 H s       :     0.906195  s :     0.906195
      pz      :     0.015805  p :     0.067981
      px      :     0.014896
      py      :     0.037281
 31 H s       :     0.910030  s :     0.910030
      pz      :     0.016545  p :     0.072900
      px      :     0.033328
      py      :     0.023027
 32 H s       :     0.894240  s :     0.894240
      pz      :     0.015647  p :     0.068217
      px      :     0.039780
      py      :     0.012791
 33 H s       :     0.899347  s :     0.899347
      pz      :     0.020339  p :     0.077647
      px      :     0.036940
      py      :     0.020368


                      *****************************
                      * MAYER POPULATION ANALYSIS *
                      *****************************

  NA   - Mulliken gross atomic population
  ZA   - Total nuclear charge
  QA   - Mulliken gross atomic charge
  VA   - Mayer's total valence
  BVA  - Mayer's bonded valence
  FA   - Mayer's free valence

  ATOM       NA         ZA         QA         VA         BVA        FA
  0 S     15.8613    16.0000     0.1387     2.5010     2.5010    -0.0000
  1 C      6.1199     6.0000    -0.1199     3.8357     3.8357    -0.0000
  2 C      6.1016     6.0000    -0.1016     4.0410     4.0410     0.0000
  3 C      5.9872     6.0000     0.0128     3.9124     3.9124    -0.0000
  4 C      6.1623     6.0000    -0.1623     3.8895     3.8895    -0.0000
  5 H      0.9880     1.0000     0.0120     1.0057     1.0057    -0.0000
  6 C      5.9387     6.0000     0.0613     3.9701     3.9701    -0.0000
  7 H      0.9898     1.0000     0.0102     0.9863     0.9863    -0.0000
  8 H      0.9738     1.0000     0.0262     0.9875     0.9875    -0.0000
  9 C      6.0553     6.0000    -0.0553     4.0600     4.0600    -0.0000
 10 H      0.9728     1.0000     0.0272     0.9821     0.9821    -0.0000
 11 H      0.9915     1.0000     0.0085     0.9780     0.9780    -0.0000
 12 C      6.0309     6.0000    -0.0309     3.9758     3.9758     0.0000
 13 H      0.9714     1.0000     0.0286     0.9892     0.9892    -0.0000
 14 H      0.9523     1.0000     0.0477     0.9933     0.9933    -0.0000
 15 H      0.9678     1.0000     0.0322     0.9915     0.9915     0.0000
 16 S     15.8803    16.0000     0.1197     2.4619     2.4619     0.0000
 17 C      6.0720     6.0000    -0.0720     3.8688     3.8688     0.0000
 18 C      6.0579     6.0000    -0.0579     3.9774     3.9774    -0.0000
 19 C      6.0256     6.0000    -0.0256     3.9684     3.9684    -0.0000
 20 C      6.1861     6.0000    -0.1861     3.9159     3.9159    -0.0000
 21 H      0.9668     1.0000     0.0332     0.9929     0.9929    -0.0000
 22 C      5.9245     6.0000     0.0755     3.9427     3.9427    -0.0000
 23 H      0.9816     1.0000     0.0184     1.0085     1.0085    -0.0000
 24 H      0.9525     1.0000     0.0475     0.9811     0.9811     0.0000
 25 C      6.1075     6.0000    -0.1075     4.0944     4.0944    -0.0000
 26 H      0.9620     1.0000     0.0380     0.9770     0.9770    -0.0000
 27 H      0.9574     1.0000     0.0426     0.9770     0.9770    -0.0000
 28 C      6.0259     6.0000    -0.0259     4.0012     4.0012    -0.0000
 29 H      0.9741     1.0000     0.0259     0.9860     0.9860    -0.0000
 30 H      0.9731     1.0000     0.0269     0.9872     0.9872    -0.0000
 31 H      0.9805     1.0000     0.0195     0.9977     0.9977    -0.0000
 32 H      0.9462     1.0000     0.0538     1.0021     1.0021    -0.0000
 33 H      0.9618     1.0000     0.0382     0.9980     0.9980     0.0000

  Mayer bond orders larger than 0.100000
B(  0-S ,  1-C ) :   1.1495 B(  0-S ,  4-C ) :   1.1530 B(  1-C ,  2-C ) :   1.6163 
B(  1-C , 32-H ) :   0.9503 B(  2-C ,  3-C ) :   1.2530 B(  2-C ,  6-C ) :   1.0221 
B(  3-C ,  4-C ) :   1.5495 B(  3-C ,  5-H ) :   0.9929 B(  4-C , 20-C ) :   1.0413 
B(  6-C ,  7-H ) :   0.9337 B(  6-C ,  8-H ) :   0.9464 B(  6-C ,  9-C ) :   1.0708 
B(  9-C , 10-H ) :   0.9555 B(  9-C , 11-H ) :   0.9561 B(  9-C , 12-C ) :   1.0532 
B( 12-C , 13-H ) :   0.9778 B( 12-C , 14-H ) :   0.9742 B( 12-C , 15-H ) :   0.9813 
B( 16-S , 17-C ) :   1.1239 B( 16-S , 20-C ) :   1.1499 B( 17-C , 18-C ) :   1.6786 
B( 17-C , 33-H ) :   0.9636 B( 18-C , 19-C ) :   1.1971 B( 18-C , 21-H ) :   0.9767 
B( 19-C , 20-C ) :   1.5749 B( 19-C , 22-C ) :   1.0466 B( 22-C , 23-H ) :   0.9354 
B( 22-C , 24-H ) :   0.9339 B( 22-C , 25-C ) :   1.0476 B( 25-C , 26-H ) :   0.9548 
B( 25-C , 27-H ) :   0.9655 B( 25-C , 28-C ) :   1.0917 B( 28-C , 29-H ) :   0.9735 
B( 28-C , 30-H ) :   0.9736 B( 28-C , 31-H ) :   0.9740 

-------
TIMINGS
-------

Total SCF time: 0 days 0 hours 0 min 18 sec 

Total time                  ....      18.901 sec
Sum of individual times     ....      18.031 sec  ( 95.4%)

Fock matrix formation       ....      16.363 sec  ( 86.6%)
  XC integration            ....       1.502 sec  (  9.2% of F)
    Basis function eval.    ....       0.151 sec  ( 10.0% of XC)
    Density eval.           ....       0.101 sec  (  6.7% of XC)
    XC-Functional eval.     ....       0.118 sec  (  7.8% of XC)
    XC-Potential eval.      ....       0.117 sec  (  7.8% of XC)
Diagonalization             ....       0.135 sec  (  0.7%)
Density matrix formation    ....       0.027 sec  (  0.1%)
Population analysis         ....       0.059 sec  (  0.3%)
Initial guess               ....       0.166 sec  (  0.9%)
Orbital Transformation      ....       0.000 sec  (  0.0%)
Orbital Orthonormalization  ....       0.000 sec  (  0.0%)
DIIS solution               ....       0.162 sec  (  0.9%)
SOSCF solution              ....       0.127 sec  (  0.7%)
Grid generation             ....       0.992 sec  (  5.2%)


-------------------------------------------------------------------------------
                          DFT DISPERSION CORRECTION                            
                                                                               
                              DFTD3 V3.1  Rev 1                                
                              USING zero damping                               
-------------------------------------------------------------------------------
The omegaB97X-D3 functional is recognized. Fit by Chai et al.
Active option DFTDOPT                   ...         3   

molecular C6(AA) [au] = 14237.643686 


            DFT-D V3
 parameters
 s6 scaling factor         :     1.0000 
 rs6 scaling factor        :     1.2810 
 s8 scaling factor         :     1.0000 
 rs8 scaling factor        :     1.0940 
 Damping factor alpha6     :    14.0000 
 Damping factor alpha8     :    16.0000 
 ad hoc parameters k1-k3   :    16.0000     1.3333    -4.0000 

 Edisp/kcal,au: -8.940545549110  -0.014247664721 
 E6   /kcal   :  -3.991251514 
 E8   /kcal   :  -4.949294035 
 % E8         :  55.357852692 

-------------------------   ----------------
Dispersion correction           -0.014247665
-------------------------   ----------------


-------------------------   --------------------
FINAL SINGLE POINT ENERGY     -1339.856475345015
-------------------------   --------------------


                            ***************************************
                            *     ORCA property calculations      *
                            ***************************************

                                    ---------------------
                                    Active property flags
                                    ---------------------
   (+) Dipole Moment


------------------------------------------------------------------------------
                       ORCA ELECTRIC PROPERTIES CALCULATION
------------------------------------------------------------------------------

Dipole Moment Calculation                       ... on
Quadrupole Moment Calculation                   ... off
Polarizability Calculation                      ... off
GBWName                                         ... config_4340.gbw
Electron density file                           ... config_4340.scfp
The origin for moment calculation is the CENTER OF MASS  = (-210.990938, 115.941488 -138.666111)

-------------
DIPOLE MOMENT
-------------
                                X             Y             Z
Electronic contribution:     -3.44741      -7.87360      19.03353
Nuclear contribution   :      3.34818       8.12831     -19.56430
                        -----------------------------------------
Total Dipole Moment    :     -0.09923       0.25471      -0.53076
                        -----------------------------------------
Magnitude (a.u.)       :      0.59702
Magnitude (Debye)      :      1.51751



--------------------
Rotational spectrum 
--------------------
 
Rotational constants in cm-1:     0.018516     0.008092     0.006642 
Rotational constants in MHz :   555.097214   242.588168   199.123679 

 Dipole components along the rotational axes: 
x,y,z [a.u.] :    -0.045410     0.408577    -0.432940 
x,y,z [Debye]:    -0.115424     1.038520    -1.100447 

 

Timings for individual modules:

Sum of individual times         ...       20.065 sec (=   0.334 min)
GTO integral calculation        ...        0.792 sec (=   0.013 min)   3.9 %
SCF iterations                  ...       19.274 sec (=   0.321 min)  96.1 %
                             ****ORCA TERMINATED NORMALLY****
TOTAL RUN TIME: 0 days 0 hours 0 minutes 20 seconds 758 msec
