
                                 *****************
                                 * O   R   C   A *
                                 *****************

           --- An Ab Initio, DFT and Semiempirical electronic structure package ---

                  #######################################################
                  #                        -***-                        #
                  #          Department of theory and spectroscopy      #
                  #               Directorship: Frank Neese             #
                  #        Max Planck Institute fuer Kohlenforschung    #
                  #                Kaiser Wilhelm Platz 1               #
                  #                 D-45470 Muelheim/Ruhr               #
                  #                      Germany                        #
                  #                                                     #
                  #                  All rights reserved                #
                  #                        -***-                        #
                  #######################################################


                         Program Version 4.2.1 -  RELEASE  -


 With contributions from (in alphabetic order):
   Daniel Aravena         : Magnetic Suceptibility
   Michael Atanasov       : Ab Initio Ligand Field Theory (pilot matlab implementation)
   Alexander A. Auer      : GIAO ZORA, VPT2
   Ute Becker             : Parallelization
   Giovanni Bistoni       : ED, misc. LED, open-shell LED, HFLD
   Martin Brehm           : Molecular dynamics
   Dmytro Bykov           : SCF Hessian
   Vijay G. Chilkuri      : MRCI spin determinant printing, contributions to CSF-ICE
   Dipayan Datta          : RHF DLPNO-CCSD density
   Achintya Kumar Dutta   : EOM-CC, STEOM-CC
   Dmitry Ganyushin       : Spin-Orbit,Spin-Spin,Magnetic field MRCI
   Miquel Garcia          : C-PCM Hessian, Gaussian charge scheme
   Yang Guo               : DLPNO-NEVPT2, CIM, IAO-localization
   Andreas Hansen         : Spin unrestricted coupled pair/coupled cluster methods
   Benjamin Helmich-Paris : CASSCF linear response (MC-RPA)
   Lee Huntington         : MR-EOM, pCC
   Robert Izsak           : Overlap fitted RIJCOSX, COSX-SCS-MP3, EOM
   Christian Kollmar      : KDIIS, OOCD, Brueckner-CCSD(T), CCSD density
   Simone Kossmann        : Meta GGA functionals, TD-DFT gradient, OOMP2, MP2 Hessian
   Martin Krupicka        : AUTO-CI
   Lucas Lang             : DCDCAS
   Dagmar Lenk            : GEPOL surface, SMD
   Dimitrios Liakos       : Extrapolation schemes; Compound Job, initial MDCI parallelization
   Dimitrios Manganas     : Further ROCIS development; embedding schemes
   Dimitrios Pantazis     : SARC Basis sets
   Taras Petrenko         : DFT Hessian,TD-DFT gradient, ASA, ECA, R-Raman, ABS, FL, XAS/XES, NRVS
   Peter Pinski           : DLPNO-MP2, DLPNO-MP2 Gradient
   Christoph Reimann      : Effective Core Potentials
   Marius Retegan         : Local ZFS, SOC
   Christoph Riplinger    : Optimizer, TS searches, QM/MM, DLPNO-CCSD(T), (RO)-DLPNO pert. Triples
   Tobias Risthaus        : Range-separated hybrids, TD-DFT gradient, RPA, STAB
   Michael Roemelt        : Original ROCIS implementation
   Masaaki Saitow         : Open-shell DLPNO-CCSD energy and density
   Barbara Sandhoefer     : DKH picture change effects
   Avijit Sen             : IP-ROCIS
   Kantharuban Sivalingam : CASSCF convergence, NEVPT2, FIC-MRCI
   Bernardo de Souza      : ESD, SOC TD-DFT
   Georgi Stoychev        : AutoAux, RI-MP2 NMR
   Willem Van den Heuvel  : Paramagnetic NMR
   Boris Wezisla          : Elementary symmetry handling
   Frank Wennmohs         : Technical directorship


 We gratefully acknowledge several colleagues who have allowed us to
 interface, adapt or use parts of their codes:
   Stefan Grimme, W. Hujo, H. Kruse,             : VdW corrections, initial TS optimization,
                  C. Bannwarth                     DFT functionals, gCP, sTDA/sTD-DF
   Ed Valeev, F. Pavosevic, A. Kumar             : LibInt (2-el integral package), F12 methods
   Garnet Chan, S. Sharma, J. Yang, R. Olivares  : DMRG
   Ulf Ekstrom                                   : XCFun DFT Library
   Mihaly Kallay                                 : mrcc  (arbitrary order and MRCC methods)
   Andreas Klamt, Michael Diedenhofen            : otool_cosmo (COSMO solvation model)
   Jiri Pittner, Ondrej Demel                    : Mk-CCSD
   Frank Weinhold                                : gennbo (NPA and NBO analysis)
   Christopher J. Cramer and Donald G. Truhlar   : smd solvation model
   Lars Goerigk                                  : TD-DFT with DH, B97 family of functionals
   V. Asgeirsson, H. Jonsson                     : NEB implementation
   FAccTs GmbH                                   : IRC, NEB, NEB-TS, Multilevel, MM, QM/MM, CI optimization
   S Lehtola, MJT Oliveira, MAL Marques          : LibXC Library


 Your calculation uses the libint2 library for the computation of 2-el integrals
 For citations please refer to: http://libint.valeyev.net

 Your ORCA version has been built with support for libXC version: 4.2.3
 For citations please refer to: https://tddft.org/programs/libxc/

 This ORCA versions uses:
   CBLAS   interface :  Fast vector & matrix operations
   LAPACKE interface :  Fast linear algebra routines
   SCALAPACK package :  Parallel linear algebra routines


Your calculation utilizes the atom-pairwise dispersion correction
with the zero-damping scheme (D30)
Cite in your paper:
S.Grimme, J.Antony, S.Ehrlich and H.Krieg, J.Chem.Phys., 132, (2010), 154104 
   

XCFun DFT library Copyright 2009-2010 Ulf Ekstrom and contributors.
See http://admol.org/xcfun for more information. This is free soft-
ware; see the source code for copying conditions. There is ABSOLUTELY
NO WARRANTY; not even for MERCHANTABILITY or FITNESS FOR A PARTICULAR
PURPOSE. For details see the documentation. Scientific users of this 
library should cite U. Ekstrom, L. Visscher, R. Bast, A. J. Thorvald-
sen and K. Ruud; J.Chem.Theor.Comp. 2010, DOI: 10.1021/ct100117s
XCFun Version 0.99 
----- Orbital basis set information -----
Your calculation utilizes the basis: def2-SVP
   F. Weigend and R. Ahlrichs, Phys. Chem. Chem. Phys. 7, 3297 (2005).

================================================================================
                                        WARNINGS
                       Please study these warnings very carefully!
================================================================================


INFO   : the flag for use of LIBINT has been found!

================================================================================
                                       INPUT FILE
================================================================================
NAME = config_1280.inp
|  1> ! wB97X-D3 SP def2-SVP
|  2> %pal
|  3> nprocs 24
|  4> end
|  5> 
|  6> * xyz 0 1
|  7> S 	 -50.9138 	 27.6117 	 26.1278 	 
|  8> C 	 -51.6904 	 28.9986 	 25.407 	 
|  9> C 	 -50.7412 	 30.0161 	 25.2269 	 
| 10> C 	 -49.3905 	 29.6938 	 25.6199 	 
| 11> C 	 -49.3204 	 28.3703 	 26.0603 	 
| 12> H 	 -48.476 	 30.3078 	 25.6838 	 
| 13> C 	 -50.9748 	 31.3308 	 24.622 	 
| 14> H 	 -50.2725 	 32.0066 	 25.1107 	 
| 15> H 	 -52.0936 	 31.7192 	 24.7277 	 
| 16> C 	 -50.5 	 31.4133 	 23.2302 	 
| 17> H 	 -49.4653 	 31.2446 	 23.1453 	 
| 18> H 	 -50.9985 	 30.7488 	 22.562 	 
| 19> C 	 -50.8884 	 32.7381 	 22.7346 	 
| 20> H 	 -50.5891 	 32.8606 	 21.6965 	 
| 21> H 	 -51.9587 	 32.9237 	 22.8965 	 
| 22> H 	 -50.2818 	 33.5637 	 23.2976 	 
| 23> S 	 -47.492 	 26.2606 	 25.7393 	 
| 24> C 	 -46.2003 	 26.0263 	 26.9249 	 
| 25> C 	 -46.3762 	 26.9435 	 27.9537 	 
| 26> C 	 -47.3003 	 28.0193 	 27.6802 	 
| 27> C 	 -48.1184 	 27.7009 	 26.5452 	 
| 28> H 	 -45.73 	 26.9443 	 28.8082 	 
| 29> C 	 -47.4757 	 29.265 	 28.5807 	 
| 30> H 	 -47.6051 	 30.164 	 28.0096 	 
| 31> H 	 -46.4626 	 29.3399 	 29.0669 	 
| 32> C 	 -48.5205 	 29.0794 	 29.7148 	 
| 33> H 	 -48.6384 	 29.9289 	 30.317 	 
| 34> H 	 -48.121 	 28.2901 	 30.3439 	 
| 35> C 	 -49.8759 	 28.6778 	 29.1967 	 
| 36> H 	 -50.3666 	 29.4536 	 28.6571 	 
| 37> H 	 -50.5024 	 28.6556 	 30.088 	 
| 38> H 	 -49.9107 	 27.7124 	 28.7 	 
| 39> H 	 -52.7545 	 29.1689 	 25.1557 	 
| 40> H 	 -45.416 	 25.1928 	 26.9673 	 
| 41> *
| 42> 
| 43>                          ****END OF INPUT****
================================================================================

                       ****************************
                       * Single Point Calculation *
                       ****************************

---------------------------------
CARTESIAN COORDINATES (ANGSTROEM)
---------------------------------
  S    -50.913800   27.611700   26.127800
  C    -51.690400   28.998600   25.407000
  C    -50.741200   30.016100   25.226900
  C    -49.390500   29.693800   25.619900
  C    -49.320400   28.370300   26.060300
  H    -48.476000   30.307800   25.683800
  C    -50.974800   31.330800   24.622000
  H    -50.272500   32.006600   25.110700
  H    -52.093600   31.719200   24.727700
  C    -50.500000   31.413300   23.230200
  H    -49.465300   31.244600   23.145300
  H    -50.998500   30.748800   22.562000
  C    -50.888400   32.738100   22.734600
  H    -50.589100   32.860600   21.696500
  H    -51.958700   32.923700   22.896500
  H    -50.281800   33.563700   23.297600
  S    -47.492000   26.260600   25.739300
  C    -46.200300   26.026300   26.924900
  C    -46.376200   26.943500   27.953700
  C    -47.300300   28.019300   27.680200
  C    -48.118400   27.700900   26.545200
  H    -45.730000   26.944300   28.808200
  C    -47.475700   29.265000   28.580700
  H    -47.605100   30.164000   28.009600
  H    -46.462600   29.339900   29.066900
  C    -48.520500   29.079400   29.714800
  H    -48.638400   29.928900   30.317000
  H    -48.121000   28.290100   30.343900
  C    -49.875900   28.677800   29.196700
  H    -50.366600   29.453600   28.657100
  H    -50.502400   28.655600   30.088000
  H    -49.910700   27.712400   28.700000
  H    -52.754500   29.168900   25.155700
  H    -45.416000   25.192800   26.967300

----------------------------
CARTESIAN COORDINATES (A.U.)
----------------------------
  NO LB      ZA    FRAG     MASS         X           Y           Z
   0 S    16.0000    0    32.060  -96.213138   52.178551   49.374386
   1 C     6.0000    0    12.011  -97.680700   54.799412   48.012272
   2 C     6.0000    0    12.011  -95.886972   56.722209   47.671932
   3 C     6.0000    0    12.011  -93.334519   56.113150   48.414595
   4 C     6.0000    0    12.011  -93.202049   53.612097   49.246830
   5 H     1.0000    0     1.008  -91.606364   57.273442   48.535348
   6 C     6.0000    0    12.011  -96.328412   59.206632   46.528837
   7 H     1.0000    0     1.008  -95.001257   60.483708   47.452346
   8 H     1.0000    0     1.008  -98.442637   59.940601   46.728581
   9 C     6.0000    0    12.011  -95.431170   59.362534   43.898716
  10 H     1.0000    0     1.008  -93.475870   59.043737   43.738278
  11 H     1.0000    0     1.008  -96.373198   58.106811   42.636001
  12 C     6.0000    0    12.011  -96.165139   61.866043   42.962168
  13 H     1.0000    0     1.008  -95.599544   62.097535   41.000443
  14 H     1.0000    0     1.008  -98.187713   62.216776   43.268114
  15 H     1.0000    0     1.008  -95.018832   63.426201   44.026084
  16 S    16.0000    0    32.060  -89.746874   49.625342   48.640228
  17 C     6.0000    0    12.011  -87.305914   49.182579   50.880687
  18 C     6.0000    0    12.011  -87.638317   50.915836   52.824837
  19 C     6.0000    0    12.011  -89.384613   52.948803   52.307997
  20 C     6.0000    0    12.011  -90.930598   52.347115   50.163158
  21 H     1.0000    0     1.008  -86.417176   50.917348   54.439608
  22 C     6.0000    0    12.011  -89.716071   55.302835   54.009696
  23 H     1.0000    0     1.008  -89.960602   57.001699   52.930473
  24 H     1.0000    0     1.008  -87.801589   55.444376   54.928481
  25 C     6.0000    0    12.011  -91.690457   54.952102   56.152834
  26 H     1.0000    0     1.008  -91.913256   56.557424   57.290827
  27 H     1.0000    0     1.008  -90.935511   53.460541   57.341661
  28 C     6.0000    0    12.011  -94.251792   54.193188   55.173767
  29 H     1.0000    0     1.008  -95.179080   55.659238   54.154071
  30 H     1.0000    0     1.008  -95.435705   54.151236   56.858080
  31 H     1.0000    0     1.008  -94.317554   52.368847   54.235140
  32 H     1.0000    0     1.008  -99.691557   55.121233   47.537384
  33 H     1.0000    0     1.008  -85.823802   47.607493   50.960812

--------------------------------
INTERNAL COORDINATES (ANGSTROEM)
--------------------------------
 S      0   0   0     0.000000000000     0.00000000     0.00000000
 C      1   0   0     1.745322838331     0.00000000     0.00000000
 C      2   1   0     1.403111862967   109.16239895     0.00000000
 C      3   2   1     1.443162076830   115.86468665     1.73457633
 C      4   3   2     1.396609616178   110.15048492     2.39046961
 H      4   3   2     1.103353732943   131.85330151   186.64072896
 C      3   2   1     1.465915775207   126.55057721   178.36023142
 H      7   3   2     1.090302077408   105.56242011   149.66554942
 H      7   3   2     1.189008195935   113.96787138    27.18136864
 C      7   3   2     1.472870846341   112.87954770   258.42956443
 H     10   7   3     1.051794556936   112.60751708   299.34083328
 H     10   7   3     1.066092744558   113.99308817    62.86065264
 C     10   7   3     1.466822743211   106.52936326   175.92029345
 H     13  10   7     1.087307845093   110.57598690   181.40159085
 H     13  10   7     1.098271851592   111.15359600   307.69235219
 H     13  10   7     1.168994405461   109.73935955    67.56567888
 S      5   4   3     2.810146197264   135.07901528   139.16938834
 C     17   5   4     1.768907216334   119.86733337    91.95640539
 C     18  17   5     1.389469715395   108.44470647     4.51713739
 C     19  18  17     1.444336768209   115.62404942   345.91198246
 C     20  19  18     1.434883678212   110.44407430    16.26698230
 H     19  18  17     1.071328768399   120.97763952   176.85605911
 C     20  19  18     1.547072687368   124.19852846   190.28147872
 H     23  20  19     1.072893550172   112.24283036   140.33606652
 H     23  20  19     1.126220253769   101.70345703    26.97759138
 C     23  20  19     1.553137859303   113.89561555   271.86067016
 H     26  23  20     1.047948233454   113.47937039   180.35703781
 H     26  23  20     1.085523629407   105.21818152    63.31476281
 C     26  23  20     1.505596004910   112.71805347   303.82413474
 H     29  26  23     1.064809978353   113.26000922   290.70401893
 H     29  26  23     1.089683798173   103.97798547   183.76274979
 H     29  26  23     1.086240806635   115.04044414    63.75233911
 H      2   1   3     1.106554377335   130.08889557   183.67655624
 H     18  17   5     1.145271365223   128.40969718   176.60521634

---------------------------
INTERNAL COORDINATES (A.U.)
---------------------------
 S      0   0   0     0.000000000000     0.00000000     0.00000000
 C      1   0   0     3.298182179724     0.00000000     0.00000000
 C      2   1   0     2.651497156265   109.16239895     0.00000000
 C      3   2   1     2.727181092070   115.86468665     1.73457633
 C      4   3   2     2.639209690577   110.15048492     2.39046961
 H      4   3   2     2.085036384103   131.85330151   186.64072896
 C      3   2   1     2.770179350536   126.55057721   178.36023142
 H      7   3   2     2.060372329546   105.56242011   149.66554942
 H      7   3   2     2.246899861304   113.96787138    27.18136864
 C      7   3   2     2.783322530220   112.87954770   258.42956443
 H     10   7   3     1.987603661758   112.60751708   299.34083328
 H     10   7   3     2.014623320576   113.99308817    62.86065264
 C     10   7   3     2.771893271675   106.52936326   175.92029345
 H     13  10   7     2.054714050489   110.57598690   181.40159085
 H     13  10   7     2.075433020104   111.15359600   307.69235219
 H     13  10   7     2.209079278408   109.73935955    67.56567888
 S      5   4   3     5.310406709110   135.07901528   139.16938834
 C     17   5   4     3.342750195189   119.86733337    91.95640539
 C     18  17   5     2.625717233474   108.44470647     4.51713739
 C     19  18  17     2.729400937068   115.62404942   345.91198246
 C     20  19  18     2.711537185855   110.44407430    16.26698230
 H     19  18  17     2.024517971666   120.97763952   176.85605911
 C     20  19  18     2.923543688395   124.19852846   190.28147872
 H     23  20  19     2.027474980675   112.24283036   140.33606652
 H     23  20  19     2.128247846099   101.70345703    26.97759138
 C     23  20  19     2.935005202307   113.89561555   271.86067016
 H     26  23  20     1.980335163755   113.47937039   180.35703781
 H     26  23  20     2.051342371479   105.21818152    63.31476281
 C     26  23  20     2.845164117605   112.71805347   303.82413474
 H     29  26  23     2.012199243754   113.26000922   290.70401893
 H     29  26  23     2.059203951117   103.97798547   183.76274979
 H     29  26  23     2.052697640031   115.04044414    63.75233911
 H      2   1   3     2.091084725456   130.08889557   183.67655624
 H     18  17   5     2.164249229294   128.40969718   176.60521634

---------------------
BASIS SET INFORMATION
---------------------
There are 3 groups of distinct atoms

 Group   1 Type S   : 10s7p1d contracted to 4s3p1d pattern {5311/511/1}
 Group   2 Type C   : 7s4p1d contracted to 3s2p1d pattern {511/31/1}
 Group   3 Type H   : 4s1p contracted to 2s1p pattern {31/1}

Atom   0S    basis set group =>   1
Atom   1C    basis set group =>   2
Atom   2C    basis set group =>   2
Atom   3C    basis set group =>   2
Atom   4C    basis set group =>   2
Atom   5H    basis set group =>   3
Atom   6C    basis set group =>   2
Atom   7H    basis set group =>   3
Atom   8H    basis set group =>   3
Atom   9C    basis set group =>   2
Atom  10H    basis set group =>   3
Atom  11H    basis set group =>   3
Atom  12C    basis set group =>   2
Atom  13H    basis set group =>   3
Atom  14H    basis set group =>   3
Atom  15H    basis set group =>   3
Atom  16S    basis set group =>   1
Atom  17C    basis set group =>   2
Atom  18C    basis set group =>   2
Atom  19C    basis set group =>   2
Atom  20C    basis set group =>   2
Atom  21H    basis set group =>   3
Atom  22C    basis set group =>   2
Atom  23H    basis set group =>   3
Atom  24H    basis set group =>   3
Atom  25C    basis set group =>   2
Atom  26H    basis set group =>   3
Atom  27H    basis set group =>   3
Atom  28C    basis set group =>   2
Atom  29H    basis set group =>   3
Atom  30H    basis set group =>   3
Atom  31H    basis set group =>   3
Atom  32H    basis set group =>   3
Atom  33H    basis set group =>   3


           ************************************************************
           *        Program running with 24 parallel MPI-processes    *
           *              working on a common directory               *
           ************************************************************
------------------------------------------------------------------------------
                           ORCA GTO INTEGRAL CALCULATION
------------------------------------------------------------------------------

                         BASIS SET STATISTICS AND STARTUP INFO

 # of primitive gaussian shells          ...  294
 # of primitive gaussian functions       ...  534
 # of contracted shells                  ...  154
 # of contracted basis functions         ...  322
 Highest angular momentum                ...    2
 Maximum contraction depth               ...    5
 Integral package used                   ... LIBINT
 Integral threshhold            Thresh   ...  1.000e-10
 Primitive cut-off              TCut     ...  1.000e-11


------------------------------ INTEGRAL EVALUATION ----------------------------


 * One electron integrals 
 Pre-screening matrix                    ... done
 Shell pair data                         ... done (   0.003 sec)



           ************************************************************
           *        Program running with 24 parallel MPI-processes    *
           *              working on a common directory               *
           ************************************************************
-------------------------------------------------------------------------------
                                 ORCA SCF
-------------------------------------------------------------------------------

------------
SCF SETTINGS
------------
Hamiltonian:
 Density Functional     Method          .... DFT(GTOs)
 Exchange Functional    Exchange        .... WB97X-D3
 Correlation Functional Correlation     .... WB97X-D3
 Gradients option       PostSCFGGA      .... off
 Hybrid DFT is turned on
   Fraction HF Exchange ScalHFX         ....  0.195728
   Scaling of DF-GGA-X  ScalDFX         ....  0.000000
   Scaling of DF-GGA-C  ScalDFC         ....  1.000000
   Scaling of DF-LDA-C  ScalLDAC        ....  1.000000
   Perturbative correction              ....  0.000000
   Density functional embedding theory  .... OFF
 Long-range corrected/Screened/Range-Separated Hybrid DFT is turned on
   Amount of maximum screened exact exchange              ....  0.804272
   Range separation parameter mu (erf(mu*r12)/r12)        ....  0.250000


General Settings:
 Integral files         IntName         .... config_1280
 Hartree-Fock type      HFTyp           .... RHF
 Total Charge           Charge          ....    0
 Multiplicity           Mult            ....    1
 Number of Electrons    NEL             ....  134
 Basis Dimension        Dim             ....  322
 Nuclear Repulsion      ENuc            ....   1307.6758231992 Eh

Convergence Acceleration:
 DIIS                   CNVDIIS         .... on
   Start iteration      DIISMaxIt       ....    12
   Startup error        DIISStart       ....  0.200000
   # of expansion vecs  DIISMaxEq       ....     5
   Bias factor          DIISBfac        ....   1.050
   Max. coefficient     DIISMaxC        ....  10.000
 Newton-Raphson         CNVNR           .... off
 SOSCF                  CNVSOSCF        .... on
   Start iteration      SOSCFMaxIt      ....   150
   Startup grad/error   SOSCFStart      ....  0.003300
 Level Shifting         CNVShift        .... on
   Level shift para.    LevelShift      ....    0.2500
   Turn off err/grad.   ShiftErr        ....    0.0010
 Zerner damping         CNVZerner       .... off
 Static damping         CNVDamp         .... on
   Fraction old density DampFac         ....    0.7000
   Max. Damping (<1)    DampMax         ....    0.9800
   Min. Damping (>=0)   DampMin         ....    0.0000
   Turn off err/grad.   DampErr         ....    0.1000
 Fernandez-Rico         CNVRico         .... off

SCF Procedure:
 Maximum # iterations   MaxIter         ....   125
 SCF integral mode      SCFMode         .... Direct
   Integral package                     .... LIBINT
 Reset frequency        DirectResetFreq ....    20
 Integral Threshold     Thresh          ....  1.000e-10 Eh
 Primitive CutOff       TCut            ....  1.000e-11 Eh

Convergence Tolerance:
 Convergence Check Mode ConvCheckMode   .... Total+1el-Energy
 Convergence forced     ConvForced      .... 0
 Energy Change          TolE            ....  1.000e-06 Eh
 1-El. energy change                    ....  1.000e-03 Eh
 Orbital Gradient       TolG            ....  5.000e-05
 Orbital Rotation angle TolX            ....  5.000e-05
 DIIS Error             TolErr          ....  1.000e-06


Diagonalization of the overlap matrix:
Smallest eigenvalue                        ... 7.628e-04
Time for diagonalization                   ...    0.014 sec
Threshold for overlap eigenvalues          ... 1.000e-08
Number of eigenvalues below threshold      ... 0
Time for construction of square roots      ...    0.029 sec
Total time needed                          ...    0.043 sec

-------------------
DFT GRID GENERATION
-------------------

General Integration Accuracy     IntAcc      ...  4.340
Radial Grid Type                 RadialGrid  ... Gauss-Chebyshev
Angular Grid (max. acc.)         AngularGrid ... Lebedev-110
Angular grid pruning method      GridPruning ... 3 (G Style)
Weight generation scheme         WeightScheme... Becke
Basis function cutoff            BFCut       ...    1.0000e-10
Integration weight cutoff        WCut        ...    1.0000e-14
Grids for H and He will be reduced by one unit

# of grid points (after initial pruning)     ...  41088 (   0.0 sec)
# of grid points (after weights+screening)   ...  36864 (   0.0 sec)
nearest neighbour list constructed           ...    0.0 sec
Grid point re-assignment to atoms done       ...    0.0 sec
Grid point division into batches done        ...    0.0 sec
Reduced shell lists constructed in    0.1 sec

Total number of grid points                  ...    36864
Total number of batches                      ...      594
Average number of points per batch           ...       62
Average number of grid points per atom       ...     1084
Average number of shells per batch           ...    80.58 (52.32%)
Average number of basis functions per batch  ...   159.19 (49.44%)
Average number of large shells per batch     ...    52.46 (65.11%)
Average number of large basis fcns per batch ...   105.77 (66.44%)
Maximum spatial batch extension              ...  12.81, 15.20, 14.19 au
Average spatial batch extension              ...   0.13,  0.15,  0.14 au

Time for grid setup =    0.144 sec

------------------------------
INITIAL GUESS: MODEL POTENTIAL
------------------------------
Loading Hartree-Fock densities                     ... done
Calculating cut-offs                               ... done
Setting up the integral package                    ... done
Initializing the effective Hamiltonian             ... done
Starting the Coulomb interaction                   ... done (   0.0 sec)
Reading the grid                                   ... done
Mapping shells                                     ... done
Starting the XC term evaluation                    ... done (   0.0 sec)
  promolecular density results
     # of electrons  =    133.991679635
     EX              =   -126.710071532
     EC              =     -4.626289274
     EX+EC           =   -131.336360805
Transforming the Hamiltonian                       ... done (   0.0 sec)
Diagonalizing the Hamiltonian                      ... done (   0.0 sec)
Back transforming the eigenvectors                 ... done (   0.0 sec)
Now organizing SCF variables                       ... done
                      ------------------
                      INITIAL GUESS DONE (   0.3 sec)
                      ------------------
--------------
SCF ITERATIONS
--------------
ITER       Energy         Delta-E        Max-DP      RMS-DP      [F,P]     Damp
               ***  Starting incremental Fock matrix formation  ***
  0  -1339.4034401303   0.000000000000 0.06820640  0.00158171  0.1661915 0.7000
  1  -1339.5929967811  -0.189556650849 0.04540342  0.00115703  0.0990406 0.7000
                               ***Turning on DIIS***
  2  -1339.6844892289  -0.091492447781 0.08531935  0.00218261  0.0501509 0.0000
  3  -1339.8220613307  -0.137572101776 0.04094613  0.00094533  0.0398049 0.0000
  4  -1339.8519996956  -0.029938364889 0.00756901  0.00020082  0.0077380 0.0000
                      *** Initiating the SOSCF procedure ***
                           *** Shutting down DIIS ***
                      *** Re-Reading the Fockian *** 
                      *** Removing any level shift *** 
ITER      Energy       Delta-E        Grad      Rot      Max-DP    RMS-DP
  5  -1339.85296410  -0.0009644028  0.001408  0.001408  0.003496  0.000101
               *** Restarting incremental Fock matrix formation ***
  6  -1339.85315025  -0.0001861495  0.001159  0.003225  0.002257  0.000063
  7  -1339.85321130  -0.0000610566  0.000597  0.003764  0.002904  0.000062
  8  -1339.85322902  -0.0000177201  0.000193  0.000349  0.000608  0.000018
  9  -1339.85323227  -0.0000032434  0.000065  0.000259  0.000214  0.000006
 10  -1339.85323245  -0.0000001820  0.000067  0.000154  0.000100  0.000002
 11  -1339.85323259  -0.0000001426  0.000013  0.000031  0.000035  0.000001
                 **** Energy Check signals convergence ****
              ***Rediagonalizing the Fockian in SOSCF/NRSCF***

               *****************************************************
               *                     SUCCESS                       *
               *           SCF CONVERGED AFTER  12 CYCLES          *
               *****************************************************

Setting up the final grid:

General Integration Accuracy     IntAcc      ...  4.670
Radial Grid Type                 RadialGrid  ... Gauss-Chebyshev
Angular Grid (max. acc.)         AngularGrid ... Lebedev-302
Angular grid pruning method      GridPruning ... 3 (G Style)
Weight generation scheme         WeightScheme... Becke
Basis function cutoff            BFCut       ...    1.0000e-10
Integration weight cutoff        WCut        ...    1.0000e-14
Grids for H and He will be reduced by one unit

# of grid points (after initial pruning)     ... 161752 (   0.0 sec)
# of grid points (after weights+screening)   ... 142252 (   0.1 sec)
nearest neighbour list constructed           ...    0.0 sec
Grid point re-assignment to atoms done       ...    0.0 sec
Grid point division into batches done        ...    0.5 sec
Reduced shell lists constructed in    0.5 sec

Total number of grid points                  ...   142252
Total number of batches                      ...     2238
Average number of points per batch           ...       63
Average number of grid points per atom       ...     4184
Average number of shells per batch           ...    74.65 (48.48%)
Average number of basis functions per batch  ...   146.53 (45.51%)
Average number of large shells per batch     ...    47.79 (64.02%)
Average number of large basis fcns per batch ...    95.41 (65.11%)
Maximum spatial batch extension              ...  11.19, 13.94, 13.66 au
Average spatial batch extension              ...   0.09,  0.10,  0.09 au

Final grid set up in    0.8 sec
Final integration                            ... done (   0.3 sec)
Change in XC energy                          ...     0.008779541
Integrated number of electrons               ...   133.999911708
Previous integrated no of electrons          ...   134.001424057

----------------
TOTAL SCF ENERGY
----------------

Total Energy       :        -1339.84445304 Eh          -36459.02111 eV

Components:
Nuclear Repulsion  :         1307.67582320 Eh           35583.66819 eV
Electronic Energy  :        -2647.52027624 Eh          -72042.68930 eV
One Electron Energy:        -4432.07819784 Eh         -120602.97910 eV
Two Electron Energy:         1784.55792160 Eh           48560.28980 eV

Virial components:
Potential Energy   :        -2671.18995427 Eh          -72686.77398 eV
Kinetic Energy     :         1331.34550123 Eh           36227.75287 eV
Virial Ratio       :            2.00638373


DFT components:
N(Alpha)           :       66.999955854174 electrons
N(Beta)            :       66.999955854174 electrons
N(Total)           :      133.999911708349 electrons
E(XC)              :      -94.230429977249 Eh       
DFET-embed. en.    :        0.000000000000 Eh       

---------------
SCF CONVERGENCE
---------------

  Last Energy change         ...    7.7694e-09  Tolerance :   1.0000e-06
  Last MAX-Density change    ...    1.5598e-05  Tolerance :   1.0000e-05
  Last RMS-Density change    ...    3.8351e-07  Tolerance :   1.0000e-06
  Last Orbital Gradient      ...    1.0141e-05  Tolerance :   5.0000e-05
  Last Orbital Rotation      ...    1.5412e-05  Tolerance :   5.0000e-05

             **** THE GBW FILE WAS UPDATED (config_1280.gbw) ****
             **** DENSITY FILE WAS UPDATED (config_1280.scfp) ****
             **** ENERGY FILE WAS UPDATED (config_1280.en.tmp) ****
             **** THE GBW FILE WAS UPDATED (config_1280.gbw) ****
             **** DENSITY FILE WAS UPDATED (config_1280.scfp) ****
----------------
ORBITAL ENERGIES
----------------

  NO   OCC          E(Eh)            E(eV) 
   0   2.0000     -88.968344     -2420.9517 
   1   2.0000     -88.967616     -2420.9319 
   2   2.0000     -10.331850      -281.1439 
   3   2.0000     -10.331193      -281.1261 
   4   2.0000     -10.327596      -281.0282 
   5   2.0000     -10.317765      -280.7607 
   6   2.0000     -10.311801      -280.5984 
   7   2.0000     -10.300720      -280.2968 
   8   2.0000     -10.299604      -280.2665 
   9   2.0000     -10.296891      -280.1926 
  10   2.0000     -10.295680      -280.1597 
  11   2.0000     -10.291270      -280.0397 
  12   2.0000     -10.279010      -279.7061 
  13   2.0000     -10.278135      -279.6823 
  14   2.0000     -10.269589      -279.4497 
  15   2.0000     -10.260229      -279.1950 
  16   2.0000      -8.082162      -219.9268 
  17   2.0000      -8.081453      -219.9075 
  18   2.0000      -6.040874      -164.3805 
  19   2.0000      -6.040014      -164.3571 
  20   2.0000      -6.036686      -164.2666 
  21   2.0000      -6.035936      -164.2462 
  22   2.0000      -6.032842      -164.1620 
  23   2.0000      -6.032337      -164.1482 
  24   2.0000      -1.000372       -27.2215 
  25   2.0000      -0.978622       -26.6296 
  26   2.0000      -0.932204       -25.3666 
  27   2.0000      -0.905723       -24.6460 
  28   2.0000      -0.869028       -23.6474 
  29   2.0000      -0.853016       -23.2117 
  30   2.0000      -0.843469       -22.9520 
  31   2.0000      -0.810846       -22.0642 
  32   2.0000      -0.779846       -21.2207 
  33   2.0000      -0.763693       -20.7812 
  34   2.0000      -0.704705       -19.1760 
  35   2.0000      -0.695059       -18.9135 
  36   2.0000      -0.689748       -18.7690 
  37   2.0000      -0.654297       -17.8043 
  38   2.0000      -0.641377       -17.4528 
  39   2.0000      -0.617936       -16.8149 
  40   2.0000      -0.592814       -16.1313 
  41   2.0000      -0.582189       -15.8422 
  42   2.0000      -0.565888       -15.3986 
  43   2.0000      -0.554031       -15.0759 
  44   2.0000      -0.540843       -14.7171 
  45   2.0000      -0.521918       -14.2021 
  46   2.0000      -0.515656       -14.0317 
  47   2.0000      -0.509835       -13.8733 
  48   2.0000      -0.501526       -13.6472 
  49   2.0000      -0.499851       -13.6016 
  50   2.0000      -0.494106       -13.4453 
  51   2.0000      -0.472931       -12.8691 
  52   2.0000      -0.471657       -12.8344 
  53   2.0000      -0.464746       -12.6464 
  54   2.0000      -0.453128       -12.3302 
  55   2.0000      -0.446906       -12.1609 
  56   2.0000      -0.441697       -12.0192 
  57   2.0000      -0.438455       -11.9310 
  58   2.0000      -0.428044       -11.6477 
  59   2.0000      -0.420172       -11.4335 
  60   2.0000      -0.416463       -11.3325 
  61   2.0000      -0.412906       -11.2357 
  62   2.0000      -0.412070       -11.2130 
  63   2.0000      -0.341172        -9.2838 
  64   2.0000      -0.329003        -8.9526 
  65   2.0000      -0.322968        -8.7884 
  66   2.0000      -0.293655        -7.9908 
  67   0.0000       0.030608         0.8329 
  68   0.0000       0.059506         1.6192 
  69   0.0000       0.108600         2.9552 
  70   0.0000       0.118777         3.2321 
  71   0.0000       0.124989         3.4011 
  72   0.0000       0.135942         3.6992 
  73   0.0000       0.146967         3.9992 
  74   0.0000       0.149270         4.0618 
  75   0.0000       0.155718         4.2373 
  76   0.0000       0.164573         4.4783 
  77   0.0000       0.172643         4.6978 
  78   0.0000       0.187192         5.0937 
  79   0.0000       0.190510         5.1840 
  80   0.0000       0.195218         5.3121 
  81   0.0000       0.209401         5.6981 
  82   0.0000       0.215812         5.8725 
  83   0.0000       0.217228         5.9111 
  84   0.0000       0.223285         6.0759 
  85   0.0000       0.230370         6.2687 
  86   0.0000       0.236636         6.4392 
  87   0.0000       0.240167         6.5353 
  88   0.0000       0.246055         6.6955 
  89   0.0000       0.251134         6.8337 
  90   0.0000       0.254271         6.9191 
  91   0.0000       0.263343         7.1659 
  92   0.0000       0.282027         7.6744 
  93   0.0000       0.294891         8.0244 
  94   0.0000       0.310709         8.4548 
  95   0.0000       0.317725         8.6457 
  96   0.0000       0.339309         9.2331 
  97   0.0000       0.347885         9.4664 
  98   0.0000       0.353952         9.6315 
  99   0.0000       0.365028         9.9329 
 100   0.0000       0.387256        10.5378 
 101   0.0000       0.399794        10.8789 
 102   0.0000       0.416302        11.3282 
 103   0.0000       0.424072        11.5396 
 104   0.0000       0.430380        11.7112 
 105   0.0000       0.441608        12.0168 
 106   0.0000       0.452075        12.3016 
 107   0.0000       0.475788        12.9468 
 108   0.0000       0.481090        13.0911 
 109   0.0000       0.497683        13.5427 
 110   0.0000       0.500990        13.6326 
 111   0.0000       0.509586        13.8666 
 112   0.0000       0.517515        14.0823 
 113   0.0000       0.524344        14.2681 
 114   0.0000       0.534569        14.5464 
 115   0.0000       0.544297        14.8111 
 116   0.0000       0.545831        14.8528 
 117   0.0000       0.561096        15.2682 
 118   0.0000       0.563625        15.3370 
 119   0.0000       0.570027        15.5112 
 120   0.0000       0.577786        15.7224 
 121   0.0000       0.585661        15.9367 
 122   0.0000       0.603936        16.4339 
 123   0.0000       0.605165        16.4674 
 124   0.0000       0.621000        16.8983 
 125   0.0000       0.631403        17.1813 
 126   0.0000       0.635541        17.2940 
 127   0.0000       0.645971        17.5778 
 128   0.0000       0.653396        17.7798 
 129   0.0000       0.662548        18.0288 
 130   0.0000       0.673380        18.3236 
 131   0.0000       0.692268        18.8376 
 132   0.0000       0.698704        19.0127 
 133   0.0000       0.704907        19.1815 
 134   0.0000       0.706871        19.2349 
 135   0.0000       0.716984        19.5101 
 136   0.0000       0.719436        19.5769 
 137   0.0000       0.726818        19.7777 
 138   0.0000       0.733898        19.9704 
 139   0.0000       0.740372        20.1465 
 140   0.0000       0.744276        20.2528 
 141   0.0000       0.751866        20.4593 
 142   0.0000       0.756315        20.5804 
 143   0.0000       0.762978        20.7617 
 144   0.0000       0.764824        20.8119 
 145   0.0000       0.771927        21.0052 
 146   0.0000       0.775037        21.0898 
 147   0.0000       0.781994        21.2791 
 148   0.0000       0.784272        21.3411 
 149   0.0000       0.789095        21.4724 
 150   0.0000       0.792216        21.5573 
 151   0.0000       0.793274        21.5861 
 152   0.0000       0.798012        21.7150 
 153   0.0000       0.803673        21.8691 
 154   0.0000       0.805974        21.9317 
 155   0.0000       0.809631        22.0312 
 156   0.0000       0.811090        22.0709 
 157   0.0000       0.821068        22.3424 
 158   0.0000       0.825354        22.4590 
 159   0.0000       0.832275        22.6474 
 160   0.0000       0.833755        22.6876 
 161   0.0000       0.840076        22.8596 
 162   0.0000       0.848055        23.0767 
 163   0.0000       0.850732        23.1496 
 164   0.0000       0.859850        23.3977 
 165   0.0000       0.872959        23.7544 
 166   0.0000       0.882921        24.0255 
 167   0.0000       0.890661        24.2361 
 168   0.0000       0.896367        24.3914 
 169   0.0000       0.904240        24.6056 
 170   0.0000       0.915409        24.9095 
 171   0.0000       0.922639        25.1063 
 172   0.0000       0.934547        25.4303 
 173   0.0000       0.940964        25.6049 
 174   0.0000       0.966349        26.2957 
 175   0.0000       0.973029        26.4775 
 176   0.0000       0.989819        26.9343 
 177   0.0000       1.018168        27.7058 
 178   0.0000       1.042674        28.3726 
 179   0.0000       1.068603        29.0782 
 180   0.0000       1.075732        29.2722 
 181   0.0000       1.093774        29.7631 
 182   0.0000       1.097938        29.8764 
 183   0.0000       1.110523        30.2189 
 184   0.0000       1.132356        30.8130 
 185   0.0000       1.139840        31.0166 
 186   0.0000       1.158154        31.5150 
 187   0.0000       1.160419        31.5766 
 188   0.0000       1.177578        32.0435 
 189   0.0000       1.187350        32.3094 
 190   0.0000       1.216469        33.1018 
 191   0.0000       1.235305        33.6144 
 192   0.0000       1.248676        33.9782 
 193   0.0000       1.267873        34.5006 
 194   0.0000       1.282762        34.9057 
 195   0.0000       1.312756        35.7219 
 196   0.0000       1.318972        35.8910 
 197   0.0000       1.345454        36.6117 
 198   0.0000       1.367107        37.2009 
 199   0.0000       1.377280        37.4777 
 200   0.0000       1.391354        37.8607 
 201   0.0000       1.405255        38.2389 
 202   0.0000       1.441419        39.2230 
 203   0.0000       1.446831        39.3703 
 204   0.0000       1.452951        39.5368 
 205   0.0000       1.470040        40.0018 
 206   0.0000       1.491318        40.5808 
 207   0.0000       1.497285        40.7432 
 208   0.0000       1.537535        41.8385 
 209   0.0000       1.558290        42.4032 
 210   0.0000       1.589091        43.2414 
 211   0.0000       1.598054        43.4853 
 212   0.0000       1.618114        44.0311 
 213   0.0000       1.620234        44.0888 
 214   0.0000       1.647190        44.8223 
 215   0.0000       1.685610        45.8678 
 216   0.0000       1.717569        46.7374 
 217   0.0000       1.737524        47.2804 
 218   0.0000       1.771770        48.2123 
 219   0.0000       1.784101        48.5479 
 220   0.0000       1.790793        48.7300 
 221   0.0000       1.795551        48.8594 
 222   0.0000       1.806671        49.1620 
 223   0.0000       1.815433        49.4004 
 224   0.0000       1.828834        49.7651 
 225   0.0000       1.836046        49.9613 
 226   0.0000       1.839589        50.0578 
 227   0.0000       1.843730        50.1704 
 228   0.0000       1.855535        50.4917 
 229   0.0000       1.864004        50.7221 
 230   0.0000       1.872766        50.9605 
 231   0.0000       1.879589        51.1462 
 232   0.0000       1.885445        51.3056 
 233   0.0000       1.893703        51.5303 
 234   0.0000       1.905314        51.8462 
 235   0.0000       1.918448        52.2036 
 236   0.0000       1.921359        52.2828 
 237   0.0000       1.925633        52.3991 
 238   0.0000       1.935286        52.6618 
 239   0.0000       1.952139        53.1204 
 240   0.0000       1.956162        53.2299 
 241   0.0000       1.962761        53.4094 
 242   0.0000       1.965216        53.4762 
 243   0.0000       1.980490        53.8919 
 244   0.0000       1.987170        54.0736 
 245   0.0000       1.991341        54.1871 
 246   0.0000       1.999926        54.4208 
 247   0.0000       2.015653        54.8487 
 248   0.0000       2.018052        54.9140 
 249   0.0000       2.022431        55.0331 
 250   0.0000       2.042494        55.5791 
 251   0.0000       2.052595        55.8539 
 252   0.0000       2.062288        56.1177 
 253   0.0000       2.067372        56.2561 
 254   0.0000       2.077088        56.5204 
 255   0.0000       2.095228        57.0141 
 256   0.0000       2.104580        57.2685 
 257   0.0000       2.123212        57.7755 
 258   0.0000       2.125476        57.8371 
 259   0.0000       2.138189        58.1831 
 260   0.0000       2.150347        58.5139 
 261   0.0000       2.159108        58.7523 
 262   0.0000       2.165123        58.9160 
 263   0.0000       2.206041        60.0294 
 264   0.0000       2.236267        60.8519 
 265   0.0000       2.238339        60.9083 
 266   0.0000       2.257827        61.4386 
 267   0.0000       2.277633        61.9775 
 268   0.0000       2.288048        62.2609 
 269   0.0000       2.299620        62.5758 
 270   0.0000       2.323744        63.2323 
 271   0.0000       2.335941        63.5642 
 272   0.0000       2.367197        64.4147 
 273   0.0000       2.384028        64.8727 
 274   0.0000       2.399382        65.2905 
 275   0.0000       2.422798        65.9277 
 276   0.0000       2.425074        65.9896 
 277   0.0000       2.437069        66.3160 
 278   0.0000       2.449415        66.6520 
 279   0.0000       2.481112        67.5145 
 280   0.0000       2.488295        67.7100 
 281   0.0000       2.500598        68.0447 
 282   0.0000       2.521178        68.6048 
 283   0.0000       2.528894        68.8147 
 284   0.0000       2.534731        68.9735 
 285   0.0000       2.550424        69.4006 
 286   0.0000       2.572702        70.0068 
 287   0.0000       2.595809        70.6356 
 288   0.0000       2.609991        71.0215 
 289   0.0000       2.626318        71.4657 
 290   0.0000       2.633668        71.6658 
 291   0.0000       2.667098        72.5754 
 292   0.0000       2.693899        73.3047 
 293   0.0000       2.705542        73.6215 
 294   0.0000       2.724039        74.1249 
 295   0.0000       2.732638        74.3589 
 296   0.0000       2.755909        74.9921 
 297   0.0000       2.784964        75.7827 
 298   0.0000       2.791540        75.9617 
 299   0.0000       2.799804        76.1865 
 300   0.0000       2.814802        76.5947 
 301   0.0000       2.851030        77.5805 
 302   0.0000       2.893821        78.7449 
 303   0.0000       2.913857        79.2901 
 304   0.0000       2.928014        79.6753 
 305   0.0000       2.932377        79.7940 
 306   0.0000       2.985245        81.2326 
 307   0.0000       3.021650        82.2233 
 308   0.0000       3.034341        82.5686 
 309   0.0000       3.058932        83.2378 
 310   0.0000       3.074976        83.6744 
 311   0.0000       3.090842        84.1061 
 312   0.0000       3.101312        84.3910 
 313   0.0000       3.134742        85.3007 
 314   0.0000       3.153905        85.8221 
 315   0.0000       3.172240        86.3210 
 316   0.0000       3.185518        86.6823 
 317   0.0000       3.211850        87.3989 
 318   0.0000       3.230926        87.9180 
 319   0.0000       3.295991        89.6885 
 320   0.0000       3.332507        90.6821 
 321   0.0000       3.392046        92.3023 

                    ********************************
                    * MULLIKEN POPULATION ANALYSIS *
                    ********************************

-----------------------
MULLIKEN ATOMIC CHARGES
-----------------------
   0 S :    0.119309
   1 C :   -0.116105
   2 C :   -0.069027
   3 C :    0.019765
   4 C :   -0.158385
   5 H :    0.035435
   6 C :    0.005697
   7 H :    0.015156
   8 H :    0.041071
   9 C :   -0.019005
  10 H :    0.019630
  11 H :    0.014207
  12 C :   -0.054701
  13 H :    0.030959
  14 H :    0.032189
  15 H :    0.023383
  16 S :    0.115123
  17 C :   -0.121795
  18 C :   -0.024428
  19 C :   -0.067006
  20 C :   -0.181601
  21 H :    0.013961
  22 C :    0.073747
  23 H :    0.022131
  24 H :    0.022824
  25 C :   -0.033629
  26 H :    0.017419
  27 H :    0.018073
  28 C :   -0.022331
  29 H :    0.020692
  30 H :    0.014143
  31 H :    0.045408
  32 H :    0.057344
  33 H :    0.090351
Sum of atomic charges:    0.0000000

--------------------------------
MULLIKEN REDUCED ORBITAL CHARGES
--------------------------------
  0 S s       :     5.840229  s :     5.840229
      pz      :     3.585561  p :     9.933369
      px      :     2.984978
      py      :     3.362830
      dz2     :     0.015064  d :     0.107092
      dxz     :     0.020287
      dyz     :     0.015551
      dx2y2   :     0.022383
      dxy     :     0.033807
  1 C s       :     3.189158  s :     3.189158
      pz      :     1.071857  p :     2.894493
      px      :     0.919207
      py      :     0.903430
      dz2     :     0.003847  d :     0.032454
      dxz     :     0.004018
      dyz     :     0.006462
      dx2y2   :     0.008951
      dxy     :     0.009177
  2 C s       :     3.080555  s :     3.080555
      pz      :     0.996449  p :     2.943714
      px      :     0.972352
      py      :     0.974912
      dz2     :     0.005117  d :     0.044758
      dxz     :     0.007713
      dyz     :     0.007144
      dx2y2   :     0.012846
      dxy     :     0.011937
  3 C s       :     3.188693  s :     3.188693
      pz      :     1.004931  p :     2.758977
      px      :     0.845321
      py      :     0.908725
      dz2     :     0.003995  d :     0.032565
      dxz     :     0.004253
      dyz     :     0.005541
      dx2y2   :     0.010415
      dxy     :     0.008362
  4 C s       :     3.083550  s :     3.083550
      pz      :     1.085366  p :     3.030774
      px      :     0.946098
      py      :     0.999310
      dz2     :     0.005099  d :     0.044061
      dxz     :     0.006181
      dyz     :     0.007490
      dx2y2   :     0.012033
      dxy     :     0.013259
  5 H s       :     0.941207  s :     0.941207
      pz      :     0.005033  p :     0.023358
      px      :     0.011453
      py      :     0.006872
  6 C s       :     2.996512  s :     2.996512
      pz      :     0.991118  p :     2.958676
      px      :     0.972316
      py      :     0.995242
      dz2     :     0.008849  d :     0.039115
      dxz     :     0.006747
      dyz     :     0.009790
      dx2y2   :     0.006769
      dxy     :     0.006960
  7 H s       :     0.960967  s :     0.960967
      pz      :     0.007474  p :     0.023878
      px      :     0.007967
      py      :     0.008436
  8 H s       :     0.940484  s :     0.940484
      pz      :     0.002904  p :     0.018446
      px      :     0.011654
      py      :     0.003888
  9 C s       :     2.976042  s :     2.976042
      pz      :     0.965034  p :     3.000274
      px      :     1.014661
      py      :     1.020579
      dz2     :     0.010154  d :     0.042689
      dxz     :     0.006665
      dyz     :     0.010404
      dx2y2   :     0.009374
      dxy     :     0.006093
 10 H s       :     0.955871  s :     0.955871
      pz      :     0.004381  p :     0.024499
      px      :     0.015095
      py      :     0.005023
 11 H s       :     0.961282  s :     0.961282
      pz      :     0.008038  p :     0.024511
      px      :     0.007162
      py      :     0.009311
 12 C s       :     3.023090  s :     3.023090
      pz      :     1.009978  p :     3.000632
      px      :     1.006912
      py      :     0.983742
      dz2     :     0.007999  d :     0.030980
      dxz     :     0.002816
      dyz     :     0.006024
      dx2y2   :     0.008136
      dxy     :     0.006005
 13 H s       :     0.945515  s :     0.945515
      pz      :     0.013457  p :     0.023526
      px      :     0.005283
      py      :     0.004786
 14 H s       :     0.944668  s :     0.944668
      pz      :     0.004825  p :     0.023143
      px      :     0.013816
      py      :     0.004502
 15 H s       :     0.956000  s :     0.956000
      pz      :     0.006223  p :     0.020617
      px      :     0.006271
      py      :     0.008123
 16 S s       :     5.847714  s :     5.847714
      pz      :     3.431371  p :     9.932376
      px      :     3.213870
      py      :     3.287136
      dz2     :     0.012417  d :     0.104787
      dxz     :     0.028231
      dyz     :     0.021915
      dx2y2   :     0.028903
      dxy     :     0.013320
 17 C s       :     3.176496  s :     3.176496
      pz      :     0.942233  p :     2.912204
      px      :     0.957721
      py      :     1.012250
      dz2     :     0.007623  d :     0.033094
      dxz     :     0.008810
      dyz     :     0.005929
      dx2y2   :     0.005092
      dxy     :     0.005640
 18 C s       :     3.164873  s :     3.164873
      pz      :     0.896067  p :     2.825442
      px      :     0.976977
      py      :     0.952399
      dz2     :     0.006696  d :     0.034113
      dxz     :     0.007196
      dyz     :     0.007286
      dx2y2   :     0.007169
      dxy     :     0.005766
 19 C s       :     3.100541  s :     3.100541
      pz      :     0.987795  p :     2.926285
      px      :     0.979876
      py      :     0.958614
      dz2     :     0.008478  d :     0.040180
      dxz     :     0.006560
      dyz     :     0.008641
      dx2y2   :     0.007599
      dxy     :     0.008903
 20 C s       :     3.090446  s :     3.090446
      pz      :     1.048485  p :     3.049749
      px      :     1.037005
      py      :     0.964259
      dz2     :     0.008449  d :     0.041406
      dxz     :     0.009694
      dyz     :     0.007341
      dx2y2   :     0.008289
      dxy     :     0.007634
 21 H s       :     0.961836  s :     0.961836
      pz      :     0.011495  p :     0.024203
      px      :     0.008877
      py      :     0.003830
 22 C s       :     2.976342  s :     2.976342
      pz      :     0.963701  p :     2.915847
      px      :     0.988281
      py      :     0.963865
      dz2     :     0.004266  d :     0.034064
      dxz     :     0.007479
      dyz     :     0.010304
      dx2y2   :     0.009290
      dxy     :     0.002724
 23 H s       :     0.954519  s :     0.954519
      pz      :     0.007137  p :     0.023350
      px      :     0.005018
      py      :     0.011194
 24 H s       :     0.955556  s :     0.955556
      pz      :     0.005822  p :     0.021620
      px      :     0.011568
      py      :     0.004230
 25 C s       :     3.011837  s :     3.011837
      pz      :     0.998746  p :     2.983589
      px      :     0.974280
      py      :     1.010564
      dz2     :     0.003621  d :     0.038203
      dxz     :     0.009939
      dyz     :     0.010244
      dx2y2   :     0.008750
      dxy     :     0.005649
 26 H s       :     0.958098  s :     0.958098
      pz      :     0.008047  p :     0.024484
      px      :     0.004671
      py      :     0.011765
 27 H s       :     0.959106  s :     0.959106
      pz      :     0.007390  p :     0.022821
      px      :     0.005337
      py      :     0.010094
 28 C s       :     2.979083  s :     2.979083
      pz      :     1.022753  p :     3.013279
      px      :     0.974365
      py      :     1.016161
      dz2     :     0.003244  d :     0.029970
      dxz     :     0.008825
      dyz     :     0.006044
      dx2y2   :     0.006602
      dxy     :     0.005254
 29 H s       :     0.953891  s :     0.953891
      pz      :     0.008765  p :     0.025417
      px      :     0.006868
      py      :     0.009785
 30 H s       :     0.961099  s :     0.961099
      pz      :     0.011270  p :     0.024758
      px      :     0.008136
      py      :     0.005352
 31 H s       :     0.930365  s :     0.930365
      pz      :     0.007506  p :     0.024228
      px      :     0.003981
      py      :     0.012740
 32 H s       :     0.919384  s :     0.919384
      pz      :     0.005614  p :     0.023272
      px      :     0.014315
      py      :     0.003344
 33 H s       :     0.887847  s :     0.887847
      pz      :     0.002812  p :     0.021802
      px      :     0.009102
      py      :     0.009887


                     *******************************
                     * LOEWDIN POPULATION ANALYSIS *
                     *******************************

----------------------
LOEWDIN ATOMIC CHARGES
----------------------
   0 S :    0.418790
   1 C :   -0.215846
   2 C :   -0.062619
   3 C :   -0.062418
   4 C :   -0.185680
   5 H :    0.039988
   6 C :   -0.042327
   7 H :    0.032609
   8 H :    0.039719
   9 C :   -0.041343
  10 H :    0.021343
  11 H :    0.021345
  12 C :   -0.062633
  13 H :    0.022207
  14 H :    0.024369
  15 H :    0.027541
  16 S :    0.401500
  17 C :   -0.199261
  18 C :   -0.073484
  19 C :   -0.048656
  20 C :   -0.207867
  21 H :    0.025728
  22 C :   -0.030943
  23 H :    0.022788
  24 H :    0.035013
  25 C :   -0.031660
  26 H :    0.017786
  27 H :    0.023930
  28 C :   -0.067144
  29 H :    0.020972
  30 H :    0.026361
  31 H :    0.018134
  32 H :    0.039829
  33 H :    0.051930

-------------------------------
LOEWDIN REDUCED ORBITAL CHARGES
-------------------------------
  0 S s       :     5.508410  s :     5.508410
      pz      :     3.547127  p :     9.940308
      px      :     3.005048
      py      :     3.388132
      dz2     :     0.017810  d :     0.132492
      dxz     :     0.025132
      dyz     :     0.017805
      dx2y2   :     0.028482
      dxy     :     0.043262
  1 C s       :     2.940100  s :     2.940100
      pz      :     1.103870  p :     3.199218
      px      :     1.065879
      py      :     1.029470
      dz2     :     0.007929  d :     0.076528
      dxz     :     0.007727
      dyz     :     0.013699
      dx2y2   :     0.022632
      dxy     :     0.024540
  2 C s       :     2.860528  s :     2.860528
      pz      :     0.983183  p :     3.090518
      px      :     1.053527
      py      :     1.053808
      dz2     :     0.010799  d :     0.111573
      dxz     :     0.017461
      dyz     :     0.016227
      dx2y2   :     0.034323
      dxy     :     0.032764
  3 C s       :     2.876480  s :     2.876480
      pz      :     1.021916  p :     3.100458
      px      :     1.032893
      py      :     1.045650
      dz2     :     0.008659  d :     0.085480
      dxz     :     0.009250
      dyz     :     0.013081
      dx2y2   :     0.030664
      dxy     :     0.023826
  4 C s       :     2.914457  s :     2.914457
      pz      :     1.065632  p :     3.166680
      px      :     1.011548
      py      :     1.089500
      dz2     :     0.010407  d :     0.104543
      dxz     :     0.013607
      dyz     :     0.016401
      dx2y2   :     0.031176
      dxy     :     0.032951
  5 H s       :     0.891878  s :     0.891878
      pz      :     0.014809  p :     0.068134
      px      :     0.033475
      py      :     0.019850
  6 C s       :     2.829040  s :     2.829040
      pz      :     1.047446  p :     3.114528
      px      :     1.032592
      py      :     1.034490
      dz2     :     0.023573  d :     0.098759
      dxz     :     0.015212
      dyz     :     0.024011
      dx2y2   :     0.018443
      dxy     :     0.017521
  7 H s       :     0.898401  s :     0.898401
      pz      :     0.020981  p :     0.068990
      px      :     0.023852
      py      :     0.024157
  8 H s       :     0.909551  s :     0.909551
      pz      :     0.008384  p :     0.050730
      px      :     0.031356
      py      :     0.010990
  9 C s       :     2.797410  s :     2.797410
      pz      :     1.019320  p :     3.137848
      px      :     1.064889
      py      :     1.053639
      dz2     :     0.026219  d :     0.106086
      dxz     :     0.016217
      dyz     :     0.025070
      dx2y2   :     0.024198
      dxy     :     0.014381
 10 H s       :     0.905174  s :     0.905174
      pz      :     0.015247  p :     0.073482
      px      :     0.041274
      py      :     0.016962
 11 H s       :     0.906670  s :     0.906670
      pz      :     0.025282  p :     0.071985
      px      :     0.019810
      py      :     0.026893
 12 C s       :     2.840534  s :     2.840534
      pz      :     1.059682  p :     3.144118
      px      :     1.053837
      py      :     1.030599
      dz2     :     0.020142  d :     0.077981
      dxz     :     0.007132
      dyz     :     0.015254
      dx2y2   :     0.020755
      dxy     :     0.014698
 13 H s       :     0.910247  s :     0.910247
      pz      :     0.038069  p :     0.067546
      px      :     0.014861
      py      :     0.014617
 14 H s       :     0.910533  s :     0.910533
      pz      :     0.012916  p :     0.065097
      px      :     0.038890
      py      :     0.013291
 15 H s       :     0.918620  s :     0.918620
      pz      :     0.015595  p :     0.053839
      px      :     0.015746
      py      :     0.022498
 16 S s       :     5.519694  s :     5.519694
      pz      :     3.442678  p :     9.949653
      px      :     3.215510
      py      :     3.291465
      dz2     :     0.013392  d :     0.129154
      dxz     :     0.035723
      dyz     :     0.026097
      dx2y2   :     0.036537
      dxy     :     0.017405
 17 C s       :     2.956743  s :     2.956743
      pz      :     1.044487  p :     3.166866
      px      :     1.041947
      py      :     1.080432
      dz2     :     0.017634  d :     0.075653
      dxz     :     0.019156
      dyz     :     0.016051
      dx2y2   :     0.010596
      dxy     :     0.012217
 18 C s       :     2.873025  s :     2.873025
      pz      :     1.050762  p :     3.110856
      px      :     1.024802
      py      :     1.035291
      dz2     :     0.017958  d :     0.089603
      dxz     :     0.018143
      dyz     :     0.021144
      dx2y2   :     0.016758
      dxy     :     0.015600
 19 C s       :     2.882160  s :     2.882160
      pz      :     1.017680  p :     3.068058
      px      :     1.021025
      py      :     1.029353
      dz2     :     0.020414  d :     0.098439
      dxz     :     0.017550
      dyz     :     0.021630
      dx2y2   :     0.017294
      dxy     :     0.021551
 20 C s       :     2.921043  s :     2.921043
      pz      :     1.084354  p :     3.187579
      px      :     1.078056
      py      :     1.025169
      dz2     :     0.019304  d :     0.099245
      dxz     :     0.024159
      dyz     :     0.017279
      dx2y2   :     0.020141
      dxy     :     0.018361
 21 H s       :     0.902389  s :     0.902389
      pz      :     0.032477  p :     0.071883
      px      :     0.026470
      py      :     0.012936
 22 C s       :     2.839991  s :     2.839991
      pz      :     1.034163  p :     3.106800
      px      :     1.043754
      py      :     1.028884
      dz2     :     0.008821  d :     0.084151
      dxz     :     0.019591
      dyz     :     0.026342
      dx2y2   :     0.023895
      dxy     :     0.005503
 23 H s       :     0.906234  s :     0.906234
      pz      :     0.022209  p :     0.070978
      px      :     0.015287
      py      :     0.033482
 24 H s       :     0.903260  s :     0.903260
      pz      :     0.016842  p :     0.061728
      px      :     0.033435
      py      :     0.011451
 25 C s       :     2.819174  s :     2.819174
      pz      :     1.030415  p :     3.119251
      px      :     1.018171
      py      :     1.070665
      dz2     :     0.007649  d :     0.093235
      dxz     :     0.025837
      dyz     :     0.025114
      dx2y2   :     0.021576
      dxy     :     0.013058
 26 H s       :     0.907719  s :     0.907719
      pz      :     0.024770  p :     0.074495
      px      :     0.016492
      py      :     0.033233
 27 H s       :     0.908944  s :     0.908944
      pz      :     0.022230  p :     0.067127
      px      :     0.017145
      py      :     0.027752
 28 C s       :     2.820184  s :     2.820184
      pz      :     1.075031  p :     3.170800
      px      :     1.027010
      py      :     1.068759
      dz2     :     0.007692  d :     0.076160
      dxz     :     0.021905
      dyz     :     0.015804
      dx2y2   :     0.018275
      dxy     :     0.012483
 29 H s       :     0.906822  s :     0.906822
      pz      :     0.022479  p :     0.072206
      px      :     0.021440
      py      :     0.028287
 30 H s       :     0.906105  s :     0.906105
      pz      :     0.030636  p :     0.067533
      px      :     0.023280
      py      :     0.013617
 31 H s       :     0.912323  s :     0.912323
      pz      :     0.020298  p :     0.069543
      px      :     0.013361
      py      :     0.035883
 32 H s       :     0.888738  s :     0.888738
      pz      :     0.017864  p :     0.071433
      px      :     0.041701
      py      :     0.011868
 33 H s       :     0.883120  s :     0.883120
      pz      :     0.009553  p :     0.064950
      px      :     0.027161
      py      :     0.028236


                      *****************************
                      * MAYER POPULATION ANALYSIS *
                      *****************************

  NA   - Mulliken gross atomic population
  ZA   - Total nuclear charge
  QA   - Mulliken gross atomic charge
  VA   - Mayer's total valence
  BVA  - Mayer's bonded valence
  FA   - Mayer's free valence

  ATOM       NA         ZA         QA         VA         BVA        FA
  0 S     15.8807    16.0000     0.1193     2.4912     2.4912     0.0000
  1 C      6.1161     6.0000    -0.1161     3.8192     3.8192    -0.0000
  2 C      6.0690     6.0000    -0.0690     3.9950     3.9950     0.0000
  3 C      5.9802     6.0000     0.0198     3.8905     3.8905    -0.0000
  4 C      6.1584     6.0000    -0.1584     3.9603     3.9603    -0.0000
  5 H      0.9646     1.0000     0.0354     1.0005     1.0005    -0.0000
  6 C      5.9943     6.0000     0.0057     4.0034     4.0034     0.0000
  7 H      0.9848     1.0000     0.0152     0.9871     0.9871     0.0000
  8 H      0.9589     1.0000     0.0411     0.9868     0.9868     0.0000
  9 C      6.0190     6.0000    -0.0190     4.0728     4.0728     0.0000
 10 H      0.9804     1.0000     0.0196     0.9873     0.9873     0.0000
 11 H      0.9858     1.0000     0.0142     0.9846     0.9846     0.0000
 12 C      6.0547     6.0000    -0.0547     4.0211     4.0211     0.0000
 13 H      0.9690     1.0000     0.0310     0.9818     0.9818     0.0000
 14 H      0.9678     1.0000     0.0322     0.9916     0.9916     0.0000
 15 H      0.9766     1.0000     0.0234     0.9874     0.9874     0.0000
 16 S     15.8849    16.0000     0.1151     2.4868     2.4868     0.0000
 17 C      6.1218     6.0000    -0.1218     3.8316     3.8316     0.0000
 18 C      6.0244     6.0000    -0.0244     3.9588     3.9588    -0.0000
 19 C      6.0670     6.0000    -0.0670     3.9914     3.9914     0.0000
 20 C      6.1816     6.0000    -0.1816     3.8954     3.8954     0.0000
 21 H      0.9860     1.0000     0.0140     0.9978     0.9978    -0.0000
 22 C      5.9263     6.0000     0.0737     3.9596     3.9596     0.0000
 23 H      0.9779     1.0000     0.0221     0.9965     0.9965    -0.0000
 24 H      0.9772     1.0000     0.0228     0.9826     0.9826    -0.0000
 25 C      6.0336     6.0000    -0.0336     4.1156     4.1156    -0.0000
 26 H      0.9826     1.0000     0.0174     0.9789     0.9789     0.0000
 27 H      0.9819     1.0000     0.0181     0.9782     0.9782     0.0000
 28 C      6.0223     6.0000    -0.0223     3.9954     3.9954    -0.0000
 29 H      0.9793     1.0000     0.0207     0.9918     0.9918    -0.0000
 30 H      0.9859     1.0000     0.0141     0.9865     0.9865    -0.0000
 31 H      0.9546     1.0000     0.0454     1.0022     1.0022    -0.0000
 32 H      0.9427     1.0000     0.0573     1.0046     1.0046    -0.0000
 33 H      0.9096     1.0000     0.0904     0.9894     0.9894     0.0000

  Mayer bond orders larger than 0.100000
B(  0-S ,  1-C ) :   1.1206 B(  0-S ,  4-C ) :   1.1632 B(  1-C ,  2-C ) :   1.6071 
B(  1-C , 32-H ) :   0.9666 B(  2-C ,  3-C ) :   1.2127 B(  2-C ,  6-C ) :   1.0467 
B(  3-C ,  4-C ) :   1.5789 B(  3-C ,  5-H ) :   0.9864 B(  4-C , 20-C ) :   1.0473 
B(  6-C ,  7-H ) :   0.9254 B(  6-C ,  8-H ) :   0.9431 B(  6-C ,  9-C ) :   1.0783 
B(  9-C , 10-H ) :   0.9440 B(  9-C , 11-H ) :   0.9427 B(  9-C , 12-C ) :   1.1017 
B( 12-C , 13-H ) :   0.9706 B( 12-C , 14-H ) :   0.9706 B( 12-C , 15-H ) :   0.9680 
B( 16-S , 17-C ) :   1.1498 B( 16-S , 20-C ) :   1.1542 B( 17-C , 18-C ) :   1.6036 
B( 17-C , 20-C ) :   0.1070 B( 17-C , 33-H ) :   0.9577 B( 18-C , 19-C ) :   1.2699 
B( 18-C , 21-H ) :   0.9800 B( 19-C , 20-C ) :   1.5419 B( 19-C , 22-C ) :   1.0316 
B( 22-C , 23-H ) :   0.9425 B( 22-C , 24-H ) :   0.9317 B( 22-C , 25-C ) :   1.0693 
B( 25-C , 26-H ) :   0.9544 B( 25-C , 27-H ) :   0.9511 B( 25-C , 28-C ) :   1.1030 
B( 28-C , 29-H ) :   0.9687 B( 28-C , 30-H ) :   0.9648 B( 28-C , 31-H ) :   0.9650 


-------
TIMINGS
-------

Total SCF time: 0 days 0 hours 0 min 21 sec 

Total time                  ....      21.829 sec
Sum of individual times     ....      20.929 sec  ( 95.9%)

Fock matrix formation       ....      19.252 sec  ( 88.2%)
  XC integration            ....       1.597 sec  (  8.3% of F)
    Basis function eval.    ....       0.153 sec  (  9.6% of XC)
    Density eval.           ....       0.110 sec  (  6.9% of XC)
    XC-Functional eval.     ....       0.118 sec  (  7.4% of XC)
    XC-Potential eval.      ....       0.133 sec  (  8.3% of XC)
Diagonalization             ....       0.134 sec  (  0.6%)
Density matrix formation    ....       0.024 sec  (  0.1%)
Population analysis         ....       0.054 sec  (  0.2%)
Initial guess               ....       0.171 sec  (  0.8%)
Orbital Transformation      ....       0.000 sec  (  0.0%)
Orbital Orthonormalization  ....       0.000 sec  (  0.0%)
DIIS solution               ....       0.158 sec  (  0.7%)
SOSCF solution              ....       0.150 sec  (  0.7%)
Grid generation             ....       0.987 sec  (  4.5%)


-------------------------------------------------------------------------------
                          DFT DISPERSION CORRECTION                            
                                                                               
                              DFTD3 V3.1  Rev 1                                
                              USING zero damping                               
-------------------------------------------------------------------------------
The omegaB97X-D3 functional is recognized. Fit by Chai et al.
Active option DFTDOPT                   ...         3   

molecular C6(AA) [au] = 14213.453230 


            DFT-D V3
 parameters
 s6 scaling factor         :     1.0000 
 rs6 scaling factor        :     1.2810 
 s8 scaling factor         :     1.0000 
 rs8 scaling factor        :     1.0940 
 Damping factor alpha6     :    14.0000 
 Damping factor alpha8     :    16.0000 
 ad hoc parameters k1-k3   :    16.0000     1.3333    -4.0000 

 Edisp/kcal,au: -9.824528678294  -0.015656381356 
 E6   /kcal   :  -4.418173698 
 E8   /kcal   :  -5.406354980 
 % E8         :  55.029153635 

-------------------------   ----------------
Dispersion correction           -0.015656381
-------------------------   ----------------


-------------------------   --------------------
FINAL SINGLE POINT ENERGY     -1339.860109425288
-------------------------   --------------------


                            ***************************************
                            *     ORCA property calculations      *
                            ***************************************

                                    ---------------------
                                    Active property flags
                                    ---------------------
   (+) Dipole Moment


------------------------------------------------------------------------------
                       ORCA ELECTRIC PROPERTIES CALCULATION
------------------------------------------------------------------------------

Dipole Moment Calculation                       ... on
Quadrupole Moment Calculation                   ... off
Polarizability Calculation                      ... off
GBWName                                         ... config_1280.gbw
Electron density file                           ... config_1280.scfp
The origin for moment calculation is the CENTER OF MASS  = (-92.877340, 54.148102 49.654000)

-------------
DIPOLE MOMENT
-------------
                                X             Y             Z
Electronic contribution:      4.79769     -22.50679      -1.92293
Nuclear contribution   :     -4.65820      23.04215       2.14950
                        -----------------------------------------
Total Dipole Moment    :      0.13949       0.53536       0.22657
                        -----------------------------------------
Magnitude (a.u.)       :      0.59783
Magnitude (Debye)      :      1.51956



--------------------
Rotational spectrum 
--------------------
 
Rotational constants in cm-1:     0.021537     0.008258     0.007653 
Rotational constants in MHz :   645.660821   247.562617   229.416327 

 Dipole components along the rotational axes: 
x,y,z [a.u.] :    -0.127228     0.414533     0.411554 
x,y,z [Debye]:    -0.323388     1.053658     1.046087 

 

Timings for individual modules:

Sum of individual times         ...       22.978 sec (=   0.383 min)
GTO integral calculation        ...        0.784 sec (=   0.013 min)   3.4 %
SCF iterations                  ...       22.194 sec (=   0.370 min)  96.6 %
                             ****ORCA TERMINATED NORMALLY****
TOTAL RUN TIME: 0 days 0 hours 0 minutes 23 seconds 694 msec
