
                                 *****************
                                 * O   R   C   A *
                                 *****************

           --- An Ab Initio, DFT and Semiempirical electronic structure package ---

                  #######################################################
                  #                        -***-                        #
                  #          Department of theory and spectroscopy      #
                  #               Directorship: Frank Neese             #
                  #        Max Planck Institute fuer Kohlenforschung    #
                  #                Kaiser Wilhelm Platz 1               #
                  #                 D-45470 Muelheim/Ruhr               #
                  #                      Germany                        #
                  #                                                     #
                  #                  All rights reserved                #
                  #                        -***-                        #
                  #######################################################


                         Program Version 4.2.1 -  RELEASE  -


 With contributions from (in alphabetic order):
   Daniel Aravena         : Magnetic Suceptibility
   Michael Atanasov       : Ab Initio Ligand Field Theory (pilot matlab implementation)
   Alexander A. Auer      : GIAO ZORA, VPT2
   Ute Becker             : Parallelization
   Giovanni Bistoni       : ED, misc. LED, open-shell LED, HFLD
   Martin Brehm           : Molecular dynamics
   Dmytro Bykov           : SCF Hessian
   Vijay G. Chilkuri      : MRCI spin determinant printing, contributions to CSF-ICE
   Dipayan Datta          : RHF DLPNO-CCSD density
   Achintya Kumar Dutta   : EOM-CC, STEOM-CC
   Dmitry Ganyushin       : Spin-Orbit,Spin-Spin,Magnetic field MRCI
   Miquel Garcia          : C-PCM Hessian, Gaussian charge scheme
   Yang Guo               : DLPNO-NEVPT2, CIM, IAO-localization
   Andreas Hansen         : Spin unrestricted coupled pair/coupled cluster methods
   Benjamin Helmich-Paris : CASSCF linear response (MC-RPA)
   Lee Huntington         : MR-EOM, pCC
   Robert Izsak           : Overlap fitted RIJCOSX, COSX-SCS-MP3, EOM
   Christian Kollmar      : KDIIS, OOCD, Brueckner-CCSD(T), CCSD density
   Simone Kossmann        : Meta GGA functionals, TD-DFT gradient, OOMP2, MP2 Hessian
   Martin Krupicka        : AUTO-CI
   Lucas Lang             : DCDCAS
   Dagmar Lenk            : GEPOL surface, SMD
   Dimitrios Liakos       : Extrapolation schemes; Compound Job, initial MDCI parallelization
   Dimitrios Manganas     : Further ROCIS development; embedding schemes
   Dimitrios Pantazis     : SARC Basis sets
   Taras Petrenko         : DFT Hessian,TD-DFT gradient, ASA, ECA, R-Raman, ABS, FL, XAS/XES, NRVS
   Peter Pinski           : DLPNO-MP2, DLPNO-MP2 Gradient
   Christoph Reimann      : Effective Core Potentials
   Marius Retegan         : Local ZFS, SOC
   Christoph Riplinger    : Optimizer, TS searches, QM/MM, DLPNO-CCSD(T), (RO)-DLPNO pert. Triples
   Tobias Risthaus        : Range-separated hybrids, TD-DFT gradient, RPA, STAB
   Michael Roemelt        : Original ROCIS implementation
   Masaaki Saitow         : Open-shell DLPNO-CCSD energy and density
   Barbara Sandhoefer     : DKH picture change effects
   Avijit Sen             : IP-ROCIS
   Kantharuban Sivalingam : CASSCF convergence, NEVPT2, FIC-MRCI
   Bernardo de Souza      : ESD, SOC TD-DFT
   Georgi Stoychev        : AutoAux, RI-MP2 NMR
   Willem Van den Heuvel  : Paramagnetic NMR
   Boris Wezisla          : Elementary symmetry handling
   Frank Wennmohs         : Technical directorship


 We gratefully acknowledge several colleagues who have allowed us to
 interface, adapt or use parts of their codes:
   Stefan Grimme, W. Hujo, H. Kruse,             : VdW corrections, initial TS optimization,
                  C. Bannwarth                     DFT functionals, gCP, sTDA/sTD-DF
   Ed Valeev, F. Pavosevic, A. Kumar             : LibInt (2-el integral package), F12 methods
   Garnet Chan, S. Sharma, J. Yang, R. Olivares  : DMRG
   Ulf Ekstrom                                   : XCFun DFT Library
   Mihaly Kallay                                 : mrcc  (arbitrary order and MRCC methods)
   Andreas Klamt, Michael Diedenhofen            : otool_cosmo (COSMO solvation model)
   Jiri Pittner, Ondrej Demel                    : Mk-CCSD
   Frank Weinhold                                : gennbo (NPA and NBO analysis)
   Christopher J. Cramer and Donald G. Truhlar   : smd solvation model
   Lars Goerigk                                  : TD-DFT with DH, B97 family of functionals
   V. Asgeirsson, H. Jonsson                     : NEB implementation
   FAccTs GmbH                                   : IRC, NEB, NEB-TS, Multilevel, MM, QM/MM, CI optimization
   S Lehtola, MJT Oliveira, MAL Marques          : LibXC Library


 Your calculation uses the libint2 library for the computation of 2-el integrals
 For citations please refer to: http://libint.valeyev.net

 Your ORCA version has been built with support for libXC version: 4.2.3
 For citations please refer to: https://tddft.org/programs/libxc/

 This ORCA versions uses:
   CBLAS   interface :  Fast vector & matrix operations
   LAPACKE interface :  Fast linear algebra routines
   SCALAPACK package :  Parallel linear algebra routines


Your calculation utilizes the atom-pairwise dispersion correction
with the zero-damping scheme (D30)
Cite in your paper:
S.Grimme, J.Antony, S.Ehrlich and H.Krieg, J.Chem.Phys., 132, (2010), 154104 
   

XCFun DFT library Copyright 2009-2010 Ulf Ekstrom and contributors.
See http://admol.org/xcfun for more information. This is free soft-
ware; see the source code for copying conditions. There is ABSOLUTELY
NO WARRANTY; not even for MERCHANTABILITY or FITNESS FOR A PARTICULAR
PURPOSE. For details see the documentation. Scientific users of this 
library should cite U. Ekstrom, L. Visscher, R. Bast, A. J. Thorvald-
sen and K. Ruud; J.Chem.Theor.Comp. 2010, DOI: 10.1021/ct100117s
XCFun Version 0.99 
----- Orbital basis set information -----
Your calculation utilizes the basis: def2-SVP
   F. Weigend and R. Ahlrichs, Phys. Chem. Chem. Phys. 7, 3297 (2005).

================================================================================
                                        WARNINGS
                       Please study these warnings very carefully!
================================================================================


INFO   : the flag for use of LIBINT has been found!

================================================================================
                                       INPUT FILE
================================================================================
NAME = config_955.inp
|  1> ! wB97X-D3 SP def2-SVP
|  2> %pal
|  3> nprocs 24
|  4> end
|  5> 
|  6> * xyz 0 1
|  7> S 	 -31.3921 	 9.92472 	 9.85989 	 
|  8> C 	 -31.1945 	 11.5394 	 9.13319 	 
|  9> C 	 -30.6763 	 12.4483 	 10.029 	 
| 10> C 	 -30.097 	 11.8087 	 11.1777 	 
| 11> C 	 -30.3816 	 10.4794 	 11.2325 	 
| 12> H 	 -29.804 	 12.2458 	 12.144 	 
| 13> C 	 -30.8678 	 13.9329 	 9.78386 	 
| 14> H 	 -30.9879 	 14.1296 	 8.72702 	 
| 15> H 	 -29.9894 	 14.5371 	 10.0429 	 
| 16> C 	 -32.0547 	 14.5739 	 10.4549 	 
| 17> H 	 -32.9476 	 13.9717 	 10.2751 	 
| 18> H 	 -32.0691 	 14.3269 	 11.5053 	 
| 19> C 	 -32.3398 	 16.0525 	 10.2359 	 
| 20> H 	 -31.3796 	 16.6139 	 10.4461 	 
| 21> H 	 -32.5066 	 16.317 	 9.27339 	 
| 22> H 	 -33.0813 	 16.4673 	 10.8756 	 
| 23> S 	 -28.7144 	 8.55303 	 12.1015 	 
| 24> C 	 -28.6418 	 8.155 	 13.7648 	 
| 25> C 	 -29.6098 	 8.79661 	 14.4566 	 
| 26> C 	 -30.4 	 9.71873 	 13.6829 	 
| 27> C 	 -30.0492 	 9.64582 	 12.3582 	 
| 28> H 	 -29.6918 	 8.58929 	 15.5197 	 
| 29> C 	 -31.49 	 10.601 	 14.2506 	 
| 30> H 	 -32.0181 	 9.86466 	 14.9491 	 
| 31> H 	 -32.1703 	 10.9811 	 13.4443 	 
| 32> C 	 -30.93 	 11.8054 	 15.0419 	 
| 33> H 	 -30.1471 	 12.347 	 14.4887 	 
| 34> H 	 -30.3452 	 11.4408 	 15.8798 	 
| 35> C 	 -31.8472 	 12.8616 	 15.665 	 
| 36> H 	 -32.4745 	 13.0147 	 14.8346 	 
| 37> H 	 -31.4064 	 13.8106 	 15.8509 	 
| 38> H 	 -32.5479 	 12.609 	 16.5021 	 
| 39> H 	 -31.433 	 11.7619 	 8.11385 	 
| 40> H 	 -28.0316 	 7.46517 	 14.3833 	 
| 41> *
| 42> 
| 43>                          ****END OF INPUT****
================================================================================

                       ****************************
                       * Single Point Calculation *
                       ****************************

---------------------------------
CARTESIAN COORDINATES (ANGSTROEM)
---------------------------------
  S    -31.392100    9.924720    9.859890
  C    -31.194500   11.539400    9.133190
  C    -30.676300   12.448300   10.029000
  C    -30.097000   11.808700   11.177700
  C    -30.381600   10.479400   11.232500
  H    -29.804000   12.245800   12.144000
  C    -30.867800   13.932900    9.783860
  H    -30.987900   14.129600    8.727020
  H    -29.989400   14.537100   10.042900
  C    -32.054700   14.573900   10.454900
  H    -32.947600   13.971700   10.275100
  H    -32.069100   14.326900   11.505300
  C    -32.339800   16.052500   10.235900
  H    -31.379600   16.613900   10.446100
  H    -32.506600   16.317000    9.273390
  H    -33.081300   16.467300   10.875600
  S    -28.714400    8.553030   12.101500
  C    -28.641800    8.155000   13.764800
  C    -29.609800    8.796610   14.456600
  C    -30.400000    9.718730   13.682900
  C    -30.049200    9.645820   12.358200
  H    -29.691800    8.589290   15.519700
  C    -31.490000   10.601000   14.250600
  H    -32.018100    9.864660   14.949100
  H    -32.170300   10.981100   13.444300
  C    -30.930000   11.805400   15.041900
  H    -30.147100   12.347000   14.488700
  H    -30.345200   11.440800   15.879800
  C    -31.847200   12.861600   15.665000
  H    -32.474500   13.014700   14.834600
  H    -31.406400   13.810600   15.850900
  H    -32.547900   12.609000   16.502100
  H    -31.433000   11.761900    8.113850
  H    -28.031600    7.465170   14.383300

----------------------------
CARTESIAN COORDINATES (A.U.)
----------------------------
  NO LB      ZA    FRAG     MASS         X           Y           Z
   0 S    16.0000    0    32.060  -59.322472   18.755003   18.632492
   1 C     6.0000    0    12.011  -58.949062   21.806306   17.259228
   2 C     6.0000    0    12.011  -57.969806   23.523878   18.952063
   3 C     6.0000    0    12.011  -56.875087   22.315209   21.122792
   4 C     6.0000    0    12.011  -57.412904   19.803196   21.226349
   5 H     1.0000    0     1.008  -56.321398   23.141208   22.948834
   6 C     6.0000    0    12.011  -58.331688   26.329365   18.488816
   7 H     1.0000    0     1.008  -58.558644   26.701074   16.491678
   8 H     1.0000    0     1.008  -56.671753   27.471138   18.978331
   9 C     6.0000    0    12.011  -60.574604   27.540680   19.756898
  10 H     1.0000    0     1.008  -62.261941   26.402687   19.417125
  11 H     1.0000    0     1.008  -60.601816   27.073917   21.741866
  12 C     6.0000    0    12.011  -61.113365   30.334829   19.343048
  13 H     1.0000    0     1.008  -59.298850   31.395721   19.740268
  14 H     1.0000    0     1.008  -61.428572   30.834661   17.524167
  15 H     1.0000    0     1.008  -62.514597   31.118687   20.551906
  16 S    16.0000    0    32.060  -54.262352   16.162884   22.868521
  17 C     6.0000    0    12.011  -54.125158   15.410717   26.011702
  18 C     6.0000    0    12.011  -55.954413   16.623184   27.319015
  19 C     6.0000    0    12.011  -57.447674   18.365738   25.856934
  20 C     6.0000    0    12.011  -56.784759   18.227958   23.353614
  21 H     1.0000    0     1.008  -56.109370   16.231406   29.327983
  22 C     6.0000    0    12.011  -59.507476   20.032987   26.929731
  23 H     1.0000    0     1.008  -60.505440   18.641506   28.249705
  24 H     1.0000    0     1.008  -60.793057   20.751272   25.406045
  25 C     6.0000    0    12.011  -58.449229   22.308973   28.425072
  26 H     1.0000    0     1.008  -56.969763   23.332449   27.379675
  27 H     1.0000    0     1.008  -57.344117   21.619979   30.008473
  28 C     6.0000    0    12.011  -60.182486   24.304902   29.602560
  29 H     1.0000    0     1.008  -61.367911   24.594219   28.033331
  30 H     1.0000    0     1.008  -59.349495   26.098252   29.953860
  31 H     1.0000    0     1.008  -61.506617   23.827557   31.184450
  32 H     1.0000    0     1.008  -59.399762   22.226770   15.332954
  33 H     1.0000    0     1.008  -52.972047   14.107127   27.180498

--------------------------------
INTERNAL COORDINATES (ANGSTROEM)
--------------------------------
 S      0   0   0     0.000000000000     0.00000000     0.00000000
 C      1   0   0     1.781664994436     0.00000000     0.00000000
 C      2   1   0     1.377354713246   111.99282352     0.00000000
 C      3   2   1     1.436728345930   112.20545603    15.71496005
 C      4   3   2     1.360528827331   112.50840786   349.85082280
 H      4   3   2     1.100291370501   129.24819521   194.41485640
 C      3   2   1     1.516839816724   119.55466595   200.76106020
 H      7   3   2     1.081677255747   110.48126981   333.58448429
 H      7   3   2     1.097153554248   113.56308509   218.84819487
 C      7   3   2     1.506621150655   116.35228936    94.05284247
 H     10   7   3     1.091898937631   109.64717460   311.49959234
 H     10   7   3     1.079146199549   110.28325871    50.59817618
 C     10   7   3     1.521677025522   119.79574066   181.43286451
 H     13  10   7     1.131962031165   107.23300731   309.01268633
 H     13  10   7     1.012031615168   114.94287668    60.11036211
 H     13  10   7     1.063530620152   115.02681317   190.61294955
 S      5   4   3     2.691768603892   125.63834204   143.48075127
 C     17   5   4     1.711801837509   120.42177200    86.92527144
 C     18  17   5     1.351767225561   110.88774200     7.62348426
 C     19  18  17     1.439907297155   114.95833351   355.77234093
 C     20  19  18     1.372299747905   110.14385894     5.23299462
 H     19  18  17     1.086226123972   117.66786982   177.40352503
 C     20  19  18     1.512872645962   124.55714823   183.27370421
 H     23  20  19     1.144110333665   100.73866474   317.08533948
 H     23  20  19     1.121340175861   111.40536752   197.96661688
 C     23  20  19     1.546070842491   112.66786367    75.24785550
 H     26  23  20     1.101041874771   112.55619506    48.75586934
 H     26  23  20     1.084896589542   109.19193875   298.90482320
 C     26  23  20     1.531361449822   121.91103943   177.80006642
 H     29  26  23     1.051907343828    97.83676628   313.48755396
 H     29  26  23     1.062762649889   116.01679690   202.74722186
 H     29  26  23     1.120501521641   121.53648224    65.82960382
 H      2   1   3     1.070253491281   123.51590368   178.75378729
 H     18  17   5     1.109392499930   135.20458665   183.66662057

---------------------------
INTERNAL COORDINATES (A.U.)
---------------------------
 S      0   0   0     0.000000000000     0.00000000     0.00000000
 C      1   0   0     3.366858901879     0.00000000     0.00000000
 C      2   1   0     2.602823197300   111.99282352     0.00000000
 C      3   2   1     2.715023102650   112.20545603    15.71496005
 C      4   3   2     2.571026880962   112.50840786   349.85082280
 H      4   3   2     2.079249357765   129.24819521   194.41485640
 C      3   2   1     2.866411842636   119.55466595   200.76106020
 H      7   3   2     2.044073778653   110.48126981   333.58448429
 H      7   3   2     2.073319744388   113.56308509   218.84819487
 C      7   3   2     2.847101362311   116.35228936    94.05284247
 H     10   7   3     2.063389958042   109.64717460   311.49959234
 H     10   7   3     2.039290775609   110.28325871    50.59817618
 C     10   7   3     2.875552842516   119.79574066   181.43286451
 H     13  10   7     2.139098232900   107.23300731   309.01268633
 H     13  10   7     1.912462591538   114.94287668    60.11036211
 H     13  10   7     2.009781607126   115.02681317   190.61294955
 S      5   4   3     5.086705477244   125.63834204   143.48075127
 C     17   5   4     3.234836668436   120.42177200    86.92527144
 C     18  17   5     2.554469853120   110.88774200     7.62348426
 C     19  18  17     2.721030449858   114.95833351   355.77234093
 C     20  19  18     2.593270697190   110.14385894     5.23299462
 H     19  18  17     2.052669893819   117.66786982   177.40352503
 C     20  19  18     2.858914976369   124.55714823   183.27370421
 H     23  20  19     2.162055197617   100.73866474   317.08533948
 H     23  20  19     2.119025835340   111.40536752   197.96661688
 C     23  20  19     2.921650475948   112.66786367    75.24785550
 H     26  23  20     2.080667605297   112.55619506    48.75586934
 H     26  23  20     2.050157437860   109.19193875   298.90482320
 C     26  23  20     2.893853752208   121.91103943   177.80006642
 H     29  26  23     1.987816798096    97.83676628   313.48755396
 H     29  26  23     2.008330353651   116.01679690   202.74722186
 H     29  26  23     2.117441008544   121.53648224    65.82960382
 H      2   1   3     2.022485992395   123.51590368   178.75378729
 H     18  17   5     2.096447999893   135.20458665   183.66662057

---------------------
BASIS SET INFORMATION
---------------------
There are 3 groups of distinct atoms

 Group   1 Type S   : 10s7p1d contracted to 4s3p1d pattern {5311/511/1}
 Group   2 Type C   : 7s4p1d contracted to 3s2p1d pattern {511/31/1}
 Group   3 Type H   : 4s1p contracted to 2s1p pattern {31/1}

Atom   0S    basis set group =>   1
Atom   1C    basis set group =>   2
Atom   2C    basis set group =>   2
Atom   3C    basis set group =>   2
Atom   4C    basis set group =>   2
Atom   5H    basis set group =>   3
Atom   6C    basis set group =>   2
Atom   7H    basis set group =>   3
Atom   8H    basis set group =>   3
Atom   9C    basis set group =>   2
Atom  10H    basis set group =>   3
Atom  11H    basis set group =>   3
Atom  12C    basis set group =>   2
Atom  13H    basis set group =>   3
Atom  14H    basis set group =>   3
Atom  15H    basis set group =>   3
Atom  16S    basis set group =>   1
Atom  17C    basis set group =>   2
Atom  18C    basis set group =>   2
Atom  19C    basis set group =>   2
Atom  20C    basis set group =>   2
Atom  21H    basis set group =>   3
Atom  22C    basis set group =>   2
Atom  23H    basis set group =>   3
Atom  24H    basis set group =>   3
Atom  25C    basis set group =>   2
Atom  26H    basis set group =>   3
Atom  27H    basis set group =>   3
Atom  28C    basis set group =>   2
Atom  29H    basis set group =>   3
Atom  30H    basis set group =>   3
Atom  31H    basis set group =>   3
Atom  32H    basis set group =>   3
Atom  33H    basis set group =>   3


           ************************************************************
           *        Program running with 24 parallel MPI-processes    *
           *              working on a common directory               *
           ************************************************************
------------------------------------------------------------------------------
                           ORCA GTO INTEGRAL CALCULATION
------------------------------------------------------------------------------

                         BASIS SET STATISTICS AND STARTUP INFO

 # of primitive gaussian shells          ...  294
 # of primitive gaussian functions       ...  534
 # of contracted shells                  ...  154
 # of contracted basis functions         ...  322
 Highest angular momentum                ...    2
 Maximum contraction depth               ...    5
 Integral package used                   ... LIBINT
 Integral threshhold            Thresh   ...  1.000e-10
 Primitive cut-off              TCut     ...  1.000e-11


------------------------------ INTEGRAL EVALUATION ----------------------------


 * One electron integrals 
 Pre-screening matrix                    ... done
 Shell pair data                         ... done (   0.003 sec)



           ************************************************************
           *        Program running with 24 parallel MPI-processes    *
           *              working on a common directory               *
           ************************************************************
-------------------------------------------------------------------------------
                                 ORCA SCF
-------------------------------------------------------------------------------

------------
SCF SETTINGS
------------
Hamiltonian:
 Density Functional     Method          .... DFT(GTOs)
 Exchange Functional    Exchange        .... WB97X-D3
 Correlation Functional Correlation     .... WB97X-D3
 Gradients option       PostSCFGGA      .... off
 Hybrid DFT is turned on
   Fraction HF Exchange ScalHFX         ....  0.195728
   Scaling of DF-GGA-X  ScalDFX         ....  0.000000
   Scaling of DF-GGA-C  ScalDFC         ....  1.000000
   Scaling of DF-LDA-C  ScalLDAC        ....  1.000000
   Perturbative correction              ....  0.000000
   Density functional embedding theory  .... OFF
 Long-range corrected/Screened/Range-Separated Hybrid DFT is turned on
   Amount of maximum screened exact exchange              ....  0.804272
   Range separation parameter mu (erf(mu*r12)/r12)        ....  0.250000


General Settings:
 Integral files         IntName         .... config_955
 Hartree-Fock type      HFTyp           .... RHF
 Total Charge           Charge          ....    0
 Multiplicity           Mult            ....    1
 Number of Electrons    NEL             ....  134
 Basis Dimension        Dim             ....  322
 Nuclear Repulsion      ENuc            ....   1284.2964491944 Eh

Convergence Acceleration:
 DIIS                   CNVDIIS         .... on
   Start iteration      DIISMaxIt       ....    12
   Startup error        DIISStart       ....  0.200000
   # of expansion vecs  DIISMaxEq       ....     5
   Bias factor          DIISBfac        ....   1.050
   Max. coefficient     DIISMaxC        ....  10.000
 Newton-Raphson         CNVNR           .... off
 SOSCF                  CNVSOSCF        .... on
   Start iteration      SOSCFMaxIt      ....   150
   Startup grad/error   SOSCFStart      ....  0.003300
 Level Shifting         CNVShift        .... on
   Level shift para.    LevelShift      ....    0.2500
   Turn off err/grad.   ShiftErr        ....    0.0010
 Zerner damping         CNVZerner       .... off
 Static damping         CNVDamp         .... on
   Fraction old density DampFac         ....    0.7000
   Max. Damping (<1)    DampMax         ....    0.9800
   Min. Damping (>=0)   DampMin         ....    0.0000
   Turn off err/grad.   DampErr         ....    0.1000
 Fernandez-Rico         CNVRico         .... off

SCF Procedure:
 Maximum # iterations   MaxIter         ....   125
 SCF integral mode      SCFMode         .... Direct
   Integral package                     .... LIBINT
 Reset frequency        DirectResetFreq ....    20
 Integral Threshold     Thresh          ....  1.000e-10 Eh
 Primitive CutOff       TCut            ....  1.000e-11 Eh

Convergence Tolerance:
 Convergence Check Mode ConvCheckMode   .... Total+1el-Energy
 Convergence forced     ConvForced      .... 0
 Energy Change          TolE            ....  1.000e-06 Eh
 1-El. energy change                    ....  1.000e-03 Eh
 Orbital Gradient       TolG            ....  5.000e-05
 Orbital Rotation angle TolX            ....  5.000e-05
 DIIS Error             TolErr          ....  1.000e-06


Diagonalization of the overlap matrix:
Smallest eigenvalue                        ... 6.151e-04
Time for diagonalization                   ...    0.014 sec
Threshold for overlap eigenvalues          ... 1.000e-08
Number of eigenvalues below threshold      ... 0
Time for construction of square roots      ...    0.026 sec
Total time needed                          ...    0.041 sec

-------------------
DFT GRID GENERATION
-------------------

General Integration Accuracy     IntAcc      ...  4.340
Radial Grid Type                 RadialGrid  ... Gauss-Chebyshev
Angular Grid (max. acc.)         AngularGrid ... Lebedev-110
Angular grid pruning method      GridPruning ... 3 (G Style)
Weight generation scheme         WeightScheme... Becke
Basis function cutoff            BFCut       ...    1.0000e-10
Integration weight cutoff        WCut        ...    1.0000e-14
Grids for H and He will be reduced by one unit

# of grid points (after initial pruning)     ...  41088 (   0.0 sec)
# of grid points (after weights+screening)   ...  36959 (   0.0 sec)
nearest neighbour list constructed           ...    0.0 sec
Grid point re-assignment to atoms done       ...    0.0 sec
Grid point division into batches done        ...    0.0 sec
Reduced shell lists constructed in    0.1 sec

Total number of grid points                  ...    36959
Total number of batches                      ...      591
Average number of points per batch           ...       62
Average number of grid points per atom       ...     1087
Average number of shells per batch           ...    70.31 (45.65%)
Average number of basis functions per batch  ...   138.85 (43.12%)
Average number of large shells per batch     ...    43.92 (62.47%)
Average number of large basis fcns per batch ...    90.23 (64.99%)
Maximum spatial batch extension              ...  18.79, 17.56, 13.54 au
Average spatial batch extension              ...   0.18,  0.17,  0.15 au

Time for grid setup =    0.146 sec

------------------------------
INITIAL GUESS: MODEL POTENTIAL
------------------------------
Loading Hartree-Fock densities                     ... done
Calculating cut-offs                               ... done
Setting up the integral package                    ... done
Initializing the effective Hamiltonian             ... done
Starting the Coulomb interaction                   ... done (   0.0 sec)
Reading the grid                                   ... done
Mapping shells                                     ... done
Starting the XC term evaluation                    ... done (   0.0 sec)
  promolecular density results
     # of electrons  =    133.993677541
     EX              =   -126.752526821
     EC              =     -4.621022039
     EX+EC           =   -131.373548861
Transforming the Hamiltonian                       ... done (   0.0 sec)
Diagonalizing the Hamiltonian                      ... done (   0.0 sec)
Back transforming the eigenvectors                 ... done (   0.0 sec)
Now organizing SCF variables                       ... done
                      ------------------
                      INITIAL GUESS DONE (   0.3 sec)
                      ------------------
--------------
SCF ITERATIONS
--------------
ITER       Energy         Delta-E        Max-DP      RMS-DP      [F,P]     Damp
               ***  Starting incremental Fock matrix formation  ***
  0  -1339.3903373085   0.000000000000 0.06605053  0.00159575  0.1672536 0.7000
  1  -1339.5810532263  -0.190715917868 0.04453523  0.00116756  0.1019760 0.7000
                               ***Turning on DIIS***
  2  -1339.6743770875  -0.093323861164 0.07945288  0.00220508  0.0536671 0.0000
  3  -1339.8156116970  -0.141234609476 0.04608932  0.00098534  0.0404392 0.0000
  4  -1339.8453165719  -0.029704874922 0.00763398  0.00019760  0.0079078 0.0000
                      *** Initiating the SOSCF procedure ***
                           *** Shutting down DIIS ***
                      *** Re-Reading the Fockian *** 
                      *** Removing any level shift *** 
ITER      Energy       Delta-E        Grad      Rot      Max-DP    RMS-DP
  5  -1339.84623519  -0.0009186188  0.001795  0.001795  0.003413  0.000102
               *** Restarting incremental Fock matrix formation ***
  6  -1339.84642645  -0.0001912628  0.001589  0.004350  0.002668  0.000063
  7  -1339.84649242  -0.0000659708  0.000836  0.005231  0.002705  0.000064
  8  -1339.84651046  -0.0000180333  0.000242  0.000552  0.000760  0.000019
  9  -1339.84651462  -0.0000041622  0.000114  0.000375  0.000257  0.000008
 10  -1339.84651496  -0.0000003444  0.000061  0.000191  0.000162  0.000003
                 **** Energy Check signals convergence ****
              ***Rediagonalizing the Fockian in SOSCF/NRSCF***

               *****************************************************
               *                     SUCCESS                       *
               *           SCF CONVERGED AFTER  11 CYCLES          *
               *****************************************************

Setting up the final grid:

General Integration Accuracy     IntAcc      ...  4.670
Radial Grid Type                 RadialGrid  ... Gauss-Chebyshev
Angular Grid (max. acc.)         AngularGrid ... Lebedev-302
Angular grid pruning method      GridPruning ... 3 (G Style)
Weight generation scheme         WeightScheme... Becke
Basis function cutoff            BFCut       ...    1.0000e-10
Integration weight cutoff        WCut        ...    1.0000e-14
Grids for H and He will be reduced by one unit

# of grid points (after initial pruning)     ... 161752 (   0.0 sec)
# of grid points (after weights+screening)   ... 142718 (   0.1 sec)
nearest neighbour list constructed           ...    0.0 sec
Grid point re-assignment to atoms done       ...    0.0 sec
Grid point division into batches done        ...    0.5 sec
Reduced shell lists constructed in    0.5 sec

Total number of grid points                  ...   142718
Total number of batches                      ...     2248
Average number of points per batch           ...       63
Average number of grid points per atom       ...     4198
Average number of shells per batch           ...    63.73 (41.38%)
Average number of basis functions per batch  ...   124.97 (38.81%)
Average number of large shells per batch     ...    38.20 (59.94%)
Average number of large basis fcns per batch ...    78.31 (62.66%)
Maximum spatial batch extension              ...  16.94, 13.67, 10.01 au
Average spatial batch extension              ...   0.12,  0.12,  0.11 au

Final grid set up in    0.9 sec
Final integration                            ... done (   0.3 sec)
Change in XC energy                          ...     0.006724647
Integrated number of electrons               ...   133.999561756
Previous integrated no of electrons          ...   134.003689951

----------------
TOTAL SCF ENERGY
----------------

Total Energy       :        -1339.83979058 Eh          -36458.89424 eV

Components:
Nuclear Repulsion  :         1284.29644919 Eh           34947.48308 eV
Electronic Energy  :        -2624.13623977 Eh          -71406.37731 eV
One Electron Energy:        -4385.00757834 Eh         -119322.12243 eV
Two Electron Energy:         1760.87133857 Eh           47915.74511 eV

Virial components:
Potential Energy   :        -2671.61429024 Eh          -72698.32075 eV
Kinetic Energy     :         1331.77449966 Eh           36239.42651 eV
Virial Ratio       :            2.00605605


DFT components:
N(Alpha)           :       66.999780878130 electrons
N(Beta)            :       66.999780878130 electrons
N(Total)           :      133.999561756261 electrons
E(XC)              :      -94.296851340273 Eh       
DFET-embed. en.    :        0.000000000000 Eh       

---------------
SCF CONVERGENCE
---------------

  Last Energy change         ...   -2.5883e-07  Tolerance :   1.0000e-06
  Last MAX-Density change    ...    4.0502e-05  Tolerance :   1.0000e-05
  Last RMS-Density change    ...    8.0834e-07  Tolerance :   1.0000e-06
  Last Orbital Gradient      ...    8.3242e-06  Tolerance :   5.0000e-05
  Last Orbital Rotation      ...    4.0072e-05  Tolerance :   5.0000e-05

             **** THE GBW FILE WAS UPDATED (config_955.gbw) ****
             **** DENSITY FILE WAS UPDATED (config_955.scfp) ****
             **** ENERGY FILE WAS UPDATED (config_955.en.tmp) ****
             **** THE GBW FILE WAS UPDATED (config_955.gbw) ****
             **** DENSITY FILE WAS UPDATED (config_955.scfp) ****
----------------
ORBITAL ENERGIES
----------------

  NO   OCC          E(Eh)            E(eV) 
   0   2.0000     -88.967185     -2420.9202 
   1   2.0000     -88.963944     -2420.8320 
   2   2.0000     -10.328549      -281.0541 
   3   2.0000     -10.319956      -280.8203 
   4   2.0000     -10.315934      -280.7108 
   5   2.0000     -10.313515      -280.6450 
   6   2.0000     -10.306161      -280.4449 
   7   2.0000     -10.305550      -280.4283 
   8   2.0000     -10.305072      -280.4153 
   9   2.0000     -10.296534      -280.1829 
  10   2.0000     -10.291849      -280.0555 
  11   2.0000     -10.290202      -280.0106 
  12   2.0000     -10.289228      -279.9841 
  13   2.0000     -10.281271      -279.7676 
  14   2.0000     -10.275214      -279.6028 
  15   2.0000     -10.274445      -279.5818 
  16   2.0000      -8.080935      -219.8934 
  17   2.0000      -8.079547      -219.8557 
  18   2.0000      -6.039445      -164.3417 
  19   2.0000      -6.038058      -164.3039 
  20   2.0000      -6.035857      -164.2440 
  21   2.0000      -6.033895      -164.1906 
  22   2.0000      -6.031478      -164.1248 
  23   2.0000      -6.030246      -164.0913 
  24   2.0000      -1.011670       -27.5289 
  25   2.0000      -0.985233       -26.8095 
  26   2.0000      -0.914596       -24.8874 
  27   2.0000      -0.909973       -24.7616 
  28   2.0000      -0.875602       -23.8264 
  29   2.0000      -0.855135       -23.2694 
  30   2.0000      -0.847975       -23.0746 
  31   2.0000      -0.821339       -22.3498 
  32   2.0000      -0.787765       -21.4362 
  33   2.0000      -0.774852       -21.0848 
  34   2.0000      -0.712318       -19.3832 
  35   2.0000      -0.703527       -19.1439 
  36   2.0000      -0.696287       -18.9469 
  37   2.0000      -0.658553       -17.9202 
  38   2.0000      -0.648395       -17.6437 
  39   2.0000      -0.616595       -16.7784 
  40   2.0000      -0.594425       -16.1751 
  41   2.0000      -0.572428       -15.5766 
  42   2.0000      -0.561262       -15.2727 
  43   2.0000      -0.553296       -15.0560 
  44   2.0000      -0.530055       -14.4235 
  45   2.0000      -0.525712       -14.3054 
  46   2.0000      -0.521426       -14.1887 
  47   2.0000      -0.520153       -14.1541 
  48   2.0000      -0.510016       -13.8783 
  49   2.0000      -0.505261       -13.7488 
  50   2.0000      -0.492978       -13.4146 
  51   2.0000      -0.481355       -13.0983 
  52   2.0000      -0.469958       -12.7882 
  53   2.0000      -0.463550       -12.6138 
  54   2.0000      -0.462469       -12.5844 
  55   2.0000      -0.453855       -12.3500 
  56   2.0000      -0.452420       -12.3110 
  57   2.0000      -0.439628       -11.9629 
  58   2.0000      -0.436226       -11.8703 
  59   2.0000      -0.431504       -11.7418 
  60   2.0000      -0.420141       -11.4326 
  61   2.0000      -0.407079       -11.0772 
  62   2.0000      -0.399584       -10.8732 
  63   2.0000      -0.340165        -9.2564 
  64   2.0000      -0.328768        -8.9462 
  65   2.0000      -0.325460        -8.8562 
  66   2.0000      -0.309717        -8.4278 
  67   0.0000       0.036505         0.9934 
  68   0.0000       0.061844         1.6829 
  69   0.0000       0.099511         2.7078 
  70   0.0000       0.120380         3.2757 
  71   0.0000       0.130124         3.5408 
  72   0.0000       0.133769         3.6400 
  73   0.0000       0.139053         3.7838 
  74   0.0000       0.153748         4.1837 
  75   0.0000       0.158203         4.3049 
  76   0.0000       0.166341         4.5264 
  77   0.0000       0.172080         4.6825 
  78   0.0000       0.179407         4.8819 
  79   0.0000       0.189968         5.1693 
  80   0.0000       0.198825         5.4103 
  81   0.0000       0.211893         5.7659 
  82   0.0000       0.216937         5.9032 
  83   0.0000       0.219941         5.9849 
  84   0.0000       0.225324         6.1314 
  85   0.0000       0.229164         6.2359 
  86   0.0000       0.232147         6.3170 
  87   0.0000       0.239779         6.5247 
  88   0.0000       0.246227         6.7002 
  89   0.0000       0.255093         6.9414 
  90   0.0000       0.264743         7.2040 
  91   0.0000       0.275222         7.4892 
  92   0.0000       0.287318         7.8183 
  93   0.0000       0.297880         8.1057 
  94   0.0000       0.307628         8.3710 
  95   0.0000       0.326673         8.8892 
  96   0.0000       0.329012         8.9529 
  97   0.0000       0.345485         9.4011 
  98   0.0000       0.356331         9.6963 
  99   0.0000       0.367740        10.0067 
 100   0.0000       0.379381        10.3235 
 101   0.0000       0.394595        10.7375 
 102   0.0000       0.409757        11.1501 
 103   0.0000       0.420478        11.4418 
 104   0.0000       0.427890        11.6435 
 105   0.0000       0.438691        11.9374 
 106   0.0000       0.469840        12.7850 
 107   0.0000       0.482953        13.1418 
 108   0.0000       0.491422        13.3723 
 109   0.0000       0.493097        13.4178 
 110   0.0000       0.502950        13.6860 
 111   0.0000       0.508168        13.8280 
 112   0.0000       0.513122        13.9627 
 113   0.0000       0.519792        14.1443 
 114   0.0000       0.526487        14.3264 
 115   0.0000       0.531705        14.4684 
 116   0.0000       0.542291        14.7565 
 117   0.0000       0.552883        15.0447 
 118   0.0000       0.558716        15.2034 
 119   0.0000       0.569459        15.4958 
 120   0.0000       0.580443        15.7947 
 121   0.0000       0.586529        15.9603 
 122   0.0000       0.596078        16.2201 
 123   0.0000       0.605741        16.4831 
 124   0.0000       0.613891        16.7048 
 125   0.0000       0.617642        16.8069 
 126   0.0000       0.632206        17.2032 
 127   0.0000       0.643603        17.5133 
 128   0.0000       0.653638        17.7864 
 129   0.0000       0.662348        18.0234 
 130   0.0000       0.671848        18.2819 
 131   0.0000       0.679192        18.4818 
 132   0.0000       0.684964        18.6388 
 133   0.0000       0.695117        18.9151 
 134   0.0000       0.709744        19.3131 
 135   0.0000       0.710359        19.3298 
 136   0.0000       0.717024        19.5112 
 137   0.0000       0.721194        19.6247 
 138   0.0000       0.732743        19.9390 
 139   0.0000       0.735786        20.0218 
 140   0.0000       0.742034        20.1918 
 141   0.0000       0.745667        20.2906 
 142   0.0000       0.749899        20.4058 
 143   0.0000       0.754479        20.5304 
 144   0.0000       0.758745        20.6465 
 145   0.0000       0.766315        20.8525 
 146   0.0000       0.771966        21.0063 
 147   0.0000       0.774065        21.0634 
 148   0.0000       0.780353        21.2345 
 149   0.0000       0.788131        21.4461 
 150   0.0000       0.790627        21.5141 
 151   0.0000       0.794586        21.6218 
 152   0.0000       0.796734        21.6802 
 153   0.0000       0.800571        21.7846 
 154   0.0000       0.802416        21.8348 
 155   0.0000       0.810596        22.0574 
 156   0.0000       0.815150        22.1814 
 157   0.0000       0.817782        22.2530 
 158   0.0000       0.820083        22.3156 
 159   0.0000       0.829306        22.5666 
 160   0.0000       0.834864        22.7178 
 161   0.0000       0.844259        22.9735 
 162   0.0000       0.849887        23.1266 
 163   0.0000       0.857195        23.3255 
 164   0.0000       0.861190        23.4342 
 165   0.0000       0.882396        24.0112 
 166   0.0000       0.887807        24.1585 
 167   0.0000       0.891064        24.2471 
 168   0.0000       0.898285        24.4436 
 169   0.0000       0.904299        24.6072 
 170   0.0000       0.908640        24.7254 
 171   0.0000       0.915690        24.9172 
 172   0.0000       0.929324        25.2882 
 173   0.0000       0.943887        25.6845 
 174   0.0000       0.955291        25.9948 
 175   0.0000       0.979100        26.6427 
 176   0.0000       0.997459        27.1422 
 177   0.0000       1.005094        27.3500 
 178   0.0000       1.023879        27.8612 
 179   0.0000       1.030822        28.0501 
 180   0.0000       1.067687        29.0532 
 181   0.0000       1.089650        29.6509 
 182   0.0000       1.094195        29.7746 
 183   0.0000       1.105843        30.0915 
 184   0.0000       1.122368        30.5412 
 185   0.0000       1.129939        30.7472 
 186   0.0000       1.139927        31.0190 
 187   0.0000       1.144770        31.1508 
 188   0.0000       1.168879        31.8068 
 189   0.0000       1.183096        32.1937 
 190   0.0000       1.203401        32.7462 
 191   0.0000       1.228966        33.4419 
 192   0.0000       1.252606        34.0851 
 193   0.0000       1.256664        34.1956 
 194   0.0000       1.268442        34.5161 
 195   0.0000       1.286447        35.0060 
 196   0.0000       1.335004        36.3273 
 197   0.0000       1.345798        36.6210 
 198   0.0000       1.351245        36.7693 
 199   0.0000       1.360276        37.0150 
 200   0.0000       1.391344        37.8604 
 201   0.0000       1.402192        38.1556 
 202   0.0000       1.411657        38.4131 
 203   0.0000       1.435064        39.0501 
 204   0.0000       1.453583        39.5540 
 205   0.0000       1.462366        39.7930 
 206   0.0000       1.479769        40.2666 
 207   0.0000       1.490575        40.5606 
 208   0.0000       1.518444        41.3190 
 209   0.0000       1.564700        42.5777 
 210   0.0000       1.599974        43.5375 
 211   0.0000       1.602160        43.5970 
 212   0.0000       1.610120        43.8136 
 213   0.0000       1.640068        44.6285 
 214   0.0000       1.666705        45.3534 
 215   0.0000       1.668528        45.4030 
 216   0.0000       1.678509        45.6746 
 217   0.0000       1.702059        46.3154 
 218   0.0000       1.755023        47.7566 
 219   0.0000       1.783776        48.5390 
 220   0.0000       1.791745        48.7559 
 221   0.0000       1.802087        49.0373 
 222   0.0000       1.803902        49.0867 
 223   0.0000       1.815363        49.3985 
 224   0.0000       1.823371        49.6164 
 225   0.0000       1.827074        49.7172 
 226   0.0000       1.833335        49.8876 
 227   0.0000       1.845752        50.2255 
 228   0.0000       1.857619        50.5484 
 229   0.0000       1.863035        50.6957 
 230   0.0000       1.872577        50.9554 
 231   0.0000       1.882365        51.2217 
 232   0.0000       1.884933        51.2916 
 233   0.0000       1.889916        51.4272 
 234   0.0000       1.896680        51.6113 
 235   0.0000       1.905883        51.8617 
 236   0.0000       1.914389        52.0932 
 237   0.0000       1.925959        52.4080 
 238   0.0000       1.931495        52.5587 
 239   0.0000       1.939249        52.7696 
 240   0.0000       1.946803        52.9752 
 241   0.0000       1.957465        53.2653 
 242   0.0000       1.964531        53.4576 
 243   0.0000       1.974807        53.7372 
 244   0.0000       1.985310        54.0230 
 245   0.0000       1.998884        54.3924 
 246   0.0000       2.004787        54.5530 
 247   0.0000       2.012098        54.7520 
 248   0.0000       2.036409        55.4135 
 249   0.0000       2.041751        55.5589 
 250   0.0000       2.049534        55.7707 
 251   0.0000       2.056093        55.9491 
 252   0.0000       2.066569        56.2342 
 253   0.0000       2.087157        56.7944 
 254   0.0000       2.115001        57.5521 
 255   0.0000       2.118702        57.6528 
 256   0.0000       2.132466        58.0274 
 257   0.0000       2.137392        58.1614 
 258   0.0000       2.141618        58.2764 
 259   0.0000       2.148948        58.4758 
 260   0.0000       2.155029        58.6413 
 261   0.0000       2.180090        59.3233 
 262   0.0000       2.182098        59.3779 
 263   0.0000       2.201126        59.8957 
 264   0.0000       2.216354        60.3101 
 265   0.0000       2.231188        60.7137 
 266   0.0000       2.240675        60.9719 
 267   0.0000       2.271654        61.8148 
 268   0.0000       2.290011        62.3144 
 269   0.0000       2.301684        62.6320 
 270   0.0000       2.337379        63.6033 
 271   0.0000       2.356394        64.1207 
 272   0.0000       2.389125        65.0114 
 273   0.0000       2.398100        65.2556 
 274   0.0000       2.418439        65.8091 
 275   0.0000       2.425314        65.9961 
 276   0.0000       2.448747        66.6338 
 277   0.0000       2.465109        67.0790 
 278   0.0000       2.481807        67.5334 
 279   0.0000       2.489328        67.7380 
 280   0.0000       2.502926        68.1081 
 281   0.0000       2.515256        68.4436 
 282   0.0000       2.522173        68.6318 
 283   0.0000       2.542031        69.1722 
 284   0.0000       2.544052        69.2272 
 285   0.0000       2.560432        69.6729 
 286   0.0000       2.575049        70.0707 
 287   0.0000       2.587269        70.4032 
 288   0.0000       2.602266        70.8112 
 289   0.0000       2.633736        71.6676 
 290   0.0000       2.637494        71.7698 
 291   0.0000       2.673181        72.7410 
 292   0.0000       2.694271        73.3148 
 293   0.0000       2.709365        73.7256 
 294   0.0000       2.717893        73.9576 
 295   0.0000       2.745849        74.7183 
 296   0.0000       2.772558        75.4451 
 297   0.0000       2.790666        75.9379 
 298   0.0000       2.800275        76.1994 
 299   0.0000       2.814296        76.5809 
 300   0.0000       2.849361        77.5351 
 301   0.0000       2.856895        77.7401 
 302   0.0000       2.884203        78.4832 
 303   0.0000       2.932000        79.7838 
 304   0.0000       2.941947        80.0545 
 305   0.0000       2.981941        81.1427 
 306   0.0000       3.008642        81.8693 
 307   0.0000       3.023507        82.2738 
 308   0.0000       3.038156        82.6724 
 309   0.0000       3.058057        83.2139 
 310   0.0000       3.063643        83.3660 
 311   0.0000       3.085283        83.9548 
 312   0.0000       3.095561        84.2345 
 313   0.0000       3.128232        85.1235 
 314   0.0000       3.141892        85.4952 
 315   0.0000       3.162157        86.0467 
 316   0.0000       3.194703        86.9323 
 317   0.0000       3.236138        88.0598 
 318   0.0000       3.251635        88.4815 
 319   0.0000       3.306026        89.9615 
 320   0.0000       3.366262        91.6006 
 321   0.0000       3.423425        93.1561 

                    ********************************
                    * MULLIKEN POPULATION ANALYSIS *
                    ********************************

-----------------------
MULLIKEN ATOMIC CHARGES
-----------------------
   0 S :    0.105943
   1 C :   -0.113294
   2 C :   -0.083849
   3 C :    0.061632
   4 C :   -0.179614
   5 H :    0.020973
   6 C :    0.082132
   7 H :    0.009201
   8 H :    0.018410
   9 C :   -0.066799
  10 H :    0.006307
  11 H :    0.001699
  12 C :    0.015341
  13 H :    0.017859
  14 H :    0.006651
  15 H :    0.034711
  16 S :    0.125233
  17 C :   -0.073388
  18 C :   -0.068301
  19 C :   -0.011928
  20 C :   -0.189635
  21 H :    0.015566
  22 C :    0.064188
  23 H :    0.046607
  24 H :    0.044384
  25 C :   -0.101883
  26 H :    0.028381
  27 H :    0.017635
  28 C :   -0.014015
  29 H :    0.002364
  30 H :    0.029691
  31 H :    0.041493
  32 H :    0.047415
  33 H :    0.058892
Sum of atomic charges:    0.0000000

--------------------------------
MULLIKEN REDUCED ORBITAL CHARGES
--------------------------------
  0 S s       :     5.852296  s :     5.852296
      pz      :     3.148746  p :     9.945770
      px      :     3.493965
      py      :     3.303059
      dz2     :     0.016902  d :     0.095992
      dxz     :     0.021301
      dyz     :     0.023673
      dx2y2   :     0.019912
      dxy     :     0.014204
  1 C s       :     3.184202  s :     3.184202
      pz      :     0.946158  p :     2.895530
      px      :     1.081401
      py      :     0.867971
      dz2     :     0.008516  d :     0.033562
      dxz     :     0.003691
      dyz     :     0.009367
      dx2y2   :     0.006375
      dxy     :     0.005613
  2 C s       :     3.082524  s :     3.082524
      pz      :     0.992963  p :     2.957582
      px      :     0.983044
      py      :     0.981575
      dz2     :     0.008506  d :     0.043743
      dxz     :     0.006081
      dyz     :     0.012903
      dx2y2   :     0.007939
      dxy     :     0.008314
  3 C s       :     3.170571  s :     3.170571
      pz      :     0.858985  p :     2.732396
      px      :     0.986516
      py      :     0.886895
      dz2     :     0.008840  d :     0.035401
      dxz     :     0.004225
      dyz     :     0.008822
      dx2y2   :     0.006149
      dxy     :     0.007365
  4 C s       :     3.078240  s :     3.078240
      pz      :     1.025484  p :     3.055126
      px      :     1.006827
      py      :     1.022815
      dz2     :     0.008273  d :     0.046248
      dxz     :     0.007392
      dyz     :     0.013177
      dx2y2   :     0.008914
      dxy     :     0.008492
  5 H s       :     0.954554  s :     0.954554
      pz      :     0.013469  p :     0.024472
      px      :     0.005591
      py      :     0.005412
  6 C s       :     2.943491  s :     2.943491
      pz      :     1.004306  p :     2.937646
      px      :     1.001301
      py      :     0.932039
      dz2     :     0.010543  d :     0.036732
      dxz     :     0.004084
      dyz     :     0.004386
      dx2y2   :     0.007875
      dxy     :     0.009843
  7 H s       :     0.967111  s :     0.967111
      pz      :     0.014107  p :     0.023687
      px      :     0.005300
      py      :     0.004281
  8 H s       :     0.958790  s :     0.958790
      pz      :     0.005689  p :     0.022800
      px      :     0.010659
      py      :     0.006452
  9 C s       :     3.016642  s :     3.016642
      pz      :     1.040008  p :     3.011475
      px      :     1.002705
      py      :     0.968762
      dz2     :     0.011342  d :     0.038682
      dxz     :     0.003575
      dyz     :     0.005278
      dx2y2   :     0.007698
      dxy     :     0.010788
 10 H s       :     0.970078  s :     0.970078
      pz      :     0.006533  p :     0.023615
      px      :     0.010478
      py      :     0.006604
 11 H s       :     0.974012  s :     0.974012
      pz      :     0.014000  p :     0.024289
      px      :     0.005582
      py      :     0.004707
 12 C s       :     2.957317  s :     2.957317
      pz      :     1.021877  p :     2.997912
      px      :     1.017182
      py      :     0.958853
      dz2     :     0.007875  d :     0.029429
      dxz     :     0.003807
      dyz     :     0.005545
      dx2y2   :     0.004903
      dxy     :     0.007299
 13 H s       :     0.959428  s :     0.959428
      pz      :     0.005563  p :     0.022713
      px      :     0.011117
      py      :     0.006034
 14 H s       :     0.965039  s :     0.965039
      pz      :     0.015193  p :     0.028310
      px      :     0.007296
      py      :     0.005821
 15 H s       :     0.940242  s :     0.940242
      pz      :     0.009166  p :     0.025047
      px      :     0.010073
      py      :     0.005808
 16 S s       :     5.841551  s :     5.841551
      pz      :     3.195484  p :     9.919449
      px      :     3.327607
      py      :     3.396358
      dz2     :     0.037497  d :     0.113767
      dxz     :     0.018065
      dyz     :     0.019282
      dx2y2   :     0.019288
      dxy     :     0.019636
 17 C s       :     3.123800  s :     3.123800
      pz      :     0.864175  p :     2.912369
      px      :     1.024457
      py      :     1.023737
      dz2     :     0.010502  d :     0.037219
      dxz     :     0.008151
      dyz     :     0.008960
      dx2y2   :     0.004895
      dxy     :     0.004712
 18 C s       :     3.177948  s :     3.177948
      pz      :     0.887251  p :     2.854084
      px      :     0.975762
      py      :     0.991071
      dz2     :     0.008751  d :     0.036269
      dxz     :     0.007386
      dyz     :     0.006938
      dx2y2   :     0.007637
      dxy     :     0.005557
 19 C s       :     3.051626  s :     3.051626
      pz      :     0.971742  p :     2.916143
      px      :     0.997193
      py      :     0.947207
      dz2     :     0.010019  d :     0.044159
      dxz     :     0.011563
      dyz     :     0.009618
      dx2y2   :     0.006581
      dxy     :     0.006378
 20 C s       :     3.084960  s :     3.084960
      pz      :     1.036176  p :     3.059002
      px      :     0.984172
      py      :     1.038654
      dz2     :     0.013284  d :     0.045673
      dxz     :     0.008310
      dyz     :     0.010311
      dx2y2   :     0.006035
      dxy     :     0.007733
 21 H s       :     0.960782  s :     0.960782
      pz      :     0.014795  p :     0.023651
      px      :     0.004167
      py      :     0.004689
 22 C s       :     2.990678  s :     2.990678
      pz      :     0.975010  p :     2.911395
      px      :     1.007753
      py      :     0.928633
      dz2     :     0.003547  d :     0.033739
      dxz     :     0.007900
      dyz     :     0.008563
      dx2y2   :     0.005215
      dxy     :     0.008514
 23 H s       :     0.932328  s :     0.932328
      pz      :     0.007331  p :     0.021066
      px      :     0.006042
      py      :     0.007692
 24 H s       :     0.934482  s :     0.934482
      pz      :     0.009113  p :     0.021134
      px      :     0.007358
      py      :     0.004663
 25 C s       :     3.053590  s :     3.053590
      pz      :     1.016430  p :     3.011196
      px      :     1.014158
      py      :     0.980609
      dz2     :     0.003964  d :     0.037097
      dxz     :     0.009566
      dyz     :     0.008877
      dx2y2   :     0.004979
      dxy     :     0.009711
 26 H s       :     0.948878  s :     0.948878
      pz      :     0.007260  p :     0.022741
      px      :     0.009382
      py      :     0.006099
 27 H s       :     0.958851  s :     0.958851
      pz      :     0.010558  p :     0.023514
      px      :     0.007510
      py      :     0.005446
 28 C s       :     2.979846  s :     2.979846
      pz      :     1.007970  p :     3.004665
      px      :     1.013306
      py      :     0.983388
      dz2     :     0.004221  d :     0.029505
      dxz     :     0.010921
      dyz     :     0.003444
      dx2y2   :     0.005007
      dxy     :     0.005913
 29 H s       :     0.969994  s :     0.969994
      pz      :     0.011559  p :     0.027642
      px      :     0.009588
      py      :     0.006495
 30 H s       :     0.945058  s :     0.945058
      pz      :     0.006022  p :     0.025251
      px      :     0.006644
      py      :     0.012586
 31 H s       :     0.936019  s :     0.936019
      pz      :     0.010290  p :     0.022489
      px      :     0.008033
      py      :     0.004166
 32 H s       :     0.928024  s :     0.928024
      pz      :     0.015029  p :     0.024561
      px      :     0.006091
      py      :     0.003440
 33 H s       :     0.917283  s :     0.917283
      pz      :     0.006831  p :     0.023825
      px      :     0.007905
      py      :     0.009090


                     *******************************
                     * LOEWDIN POPULATION ANALYSIS *
                     *******************************

----------------------
LOEWDIN ATOMIC CHARGES
----------------------
   0 S :    0.370516
   1 C :   -0.174849
   2 C :   -0.057140
   3 C :   -0.059843
   4 C :   -0.183222
   5 H :    0.038641
   6 C :   -0.031090
   7 H :    0.027832
   8 H :    0.027274
   9 C :   -0.051865
  10 H :    0.023060
  11 H :    0.020207
  12 C :   -0.052611
  13 H :    0.031874
  14 H :    0.009342
  15 H :    0.028361
  16 S :    0.428358
  17 C :   -0.203915
  18 C :   -0.080233
  19 C :   -0.053132
  20 C :   -0.208406
  21 H :    0.029818
  22 C :   -0.032750
  23 H :    0.044914
  24 H :    0.035575
  25 C :   -0.048703
  26 H :    0.026645
  27 H :    0.020311
  28 C :   -0.069896
  29 H :    0.018685
  30 H :    0.025669
  31 H :    0.031571
  32 H :    0.024493
  33 H :    0.044507

-------------------------------
LOEWDIN REDUCED ORBITAL CHARGES
-------------------------------
  0 S s       :     5.542049  s :     5.542049
      pz      :     3.158483  p :     9.969557
      px      :     3.483265
      py      :     3.327809
      dz2     :     0.021062  d :     0.117878
      dxz     :     0.027740
      dyz     :     0.029846
      dx2y2   :     0.023807
      dxy     :     0.015422
  1 C s       :     2.932144  s :     2.932144
      pz      :     1.070317  p :     3.162653
      px      :     1.092882
      py      :     0.999453
      dz2     :     0.020813  d :     0.080053
      dxz     :     0.008076
      dyz     :     0.024338
      dx2y2   :     0.014330
      dxy     :     0.012496
  2 C s       :     2.862208  s :     2.862208
      pz      :     1.045897  p :     3.086452
      px      :     0.993274
      py      :     1.047281
      dz2     :     0.021037  d :     0.108479
      dxz     :     0.014847
      dyz     :     0.034531
      dx2y2   :     0.019223
      dxy     :     0.018841
  3 C s       :     2.870332  s :     2.870332
      pz      :     1.022289  p :     3.096810
      px      :     1.023085
      py      :     1.051436
      dz2     :     0.023050  d :     0.092702
      dxz     :     0.009813
      dyz     :     0.025999
      dx2y2   :     0.016364
      dxy     :     0.017477
  4 C s       :     2.906408  s :     2.906408
      pz      :     1.032679  p :     3.166781
      px      :     1.031414
      py      :     1.102687
      dz2     :     0.020573  d :     0.110033
      dxz     :     0.016260
      dyz     :     0.031919
      dx2y2   :     0.022188
      dxy     :     0.019092
  5 H s       :     0.892187  s :     0.892187
      pz      :     0.037219  p :     0.069172
      px      :     0.016784
      py      :     0.015168
  6 C s       :     2.819255  s :     2.819255
      pz      :     1.063473  p :     3.119123
      px      :     1.051682
      py      :     1.003968
      dz2     :     0.026815  d :     0.092713
      dxz     :     0.010312
      dyz     :     0.010637
      dx2y2   :     0.020340
      dxy     :     0.024609
  7 H s       :     0.903226  s :     0.903226
      pz      :     0.039829  p :     0.068942
      px      :     0.015343
      py      :     0.013771
  8 H s       :     0.906383  s :     0.906383
      pz      :     0.015213  p :     0.066343
      px      :     0.030646
      py      :     0.020484
  9 C s       :     2.822001  s :     2.822001
      pz      :     1.073594  p :     3.136102
      px      :     1.042000
      py      :     1.020508
      dz2     :     0.027792  d :     0.093762
      dxz     :     0.008908
      dyz     :     0.011701
      dx2y2   :     0.019431
      dxy     :     0.025930
 10 H s       :     0.907292  s :     0.907292
      pz      :     0.017840  p :     0.069649
      px      :     0.030848
      py      :     0.020960
 11 H s       :     0.907938  s :     0.907938
      pz      :     0.039231  p :     0.071856
      px      :     0.016845
      py      :     0.015779
 12 C s       :     2.810000  s :     2.810000
      pz      :     1.087606  p :     3.166810
      px      :     1.063438
      py      :     1.015766
      dz2     :     0.020783  d :     0.075800
      dxz     :     0.010587
      dyz     :     0.012760
      dx2y2   :     0.013934
      dxy     :     0.017736
 13 H s       :     0.908997  s :     0.908997
      pz      :     0.012579  p :     0.059129
      px      :     0.029111
      py      :     0.017439
 14 H s       :     0.908327  s :     0.908327
      pz      :     0.042175  p :     0.082332
      px      :     0.020114
      py      :     0.020043
 15 H s       :     0.901039  s :     0.901039
      pz      :     0.024325  p :     0.070600
      px      :     0.027829
      py      :     0.018446
 16 S s       :     5.490082  s :     5.490082
      pz      :     3.233832  p :     9.939689
      px      :     3.330834
      py      :     3.375024
      dz2     :     0.049085  d :     0.141870
      dxz     :     0.020491
      dyz     :     0.022847
      dx2y2   :     0.023422
      dxy     :     0.026026
 17 C s       :     2.924649  s :     2.924649
      pz      :     1.025049  p :     3.192418
      px      :     1.091017
      py      :     1.076351
      dz2     :     0.025269  d :     0.086848
      dxz     :     0.020669
      dyz     :     0.020791
      dx2y2   :     0.008721
      dxy     :     0.011398
 18 C s       :     2.864535  s :     2.864535
      pz      :     1.047188  p :     3.121471
      px      :     1.043626
      py      :     1.030657
      dz2     :     0.023583  d :     0.094227
      dxz     :     0.021204
      dyz     :     0.017861
      dx2y2   :     0.016665
      dxy     :     0.014914
 19 C s       :     2.858524  s :     2.858524
      pz      :     1.061615  p :     3.084554
      px      :     1.013132
      py      :     1.009807
      dz2     :     0.028904  d :     0.110053
      dxz     :     0.029097
      dyz     :     0.024566
      dx2y2   :     0.012301
      dxy     :     0.015185
 20 C s       :     2.897499  s :     2.897499
      pz      :     1.093627  p :     3.199206
      px      :     1.049317
      py      :     1.056262
      dz2     :     0.035901  d :     0.111702
      dxz     :     0.020179
      dyz     :     0.026223
      dx2y2   :     0.012534
      dxy     :     0.016865
 21 H s       :     0.900722  s :     0.900722
      pz      :     0.041244  p :     0.069460
      px      :     0.013182
      py      :     0.015034
 22 C s       :     2.846303  s :     2.846303
      pz      :     1.043213  p :     3.102078
      px      :     1.041339
      py      :     1.017525
      dz2     :     0.007364  d :     0.084369
      dxz     :     0.020614
      dyz     :     0.022464
      dx2y2   :     0.011596
      dxy     :     0.022330
 23 H s       :     0.895492  s :     0.895492
      pz      :     0.020702  p :     0.059594
      px      :     0.016680
      py      :     0.022212
 24 H s       :     0.901655  s :     0.901655
      pz      :     0.026806  p :     0.062770
      px      :     0.021976
      py      :     0.013987
 25 C s       :     2.834773  s :     2.834773
      pz      :     1.058822  p :     3.125081
      px      :     1.041897
      py      :     1.024362
      dz2     :     0.008006  d :     0.088849
      dxz     :     0.023258
      dyz     :     0.022607
      dx2y2   :     0.010755
      dxy     :     0.024223
 26 H s       :     0.906919  s :     0.906919
      pz      :     0.019394  p :     0.066436
      px      :     0.028067
      py      :     0.018975
 27 H s       :     0.909540  s :     0.909540
      pz      :     0.030109  p :     0.070149
      px      :     0.023163
      py      :     0.016877
 28 C s       :     2.821154  s :     2.821154
      pz      :     1.065656  p :     3.174841
      px      :     1.063140
      py      :     1.046046
      dz2     :     0.010372  d :     0.073900
      dxz     :     0.027071
      dyz     :     0.008570
      dx2y2   :     0.011585
      dxy     :     0.016301
 29 H s       :     0.904140  s :     0.904140
      pz      :     0.031788  p :     0.077174
      px      :     0.027109
      py      :     0.018277
 30 H s       :     0.902439  s :     0.902439
      pz      :     0.015616  p :     0.071892
      px      :     0.019532
      py      :     0.036744
 31 H s       :     0.906843  s :     0.906843
      pz      :     0.026426  p :     0.061586
      px      :     0.023161
      py      :     0.011998
 32 H s       :     0.898068  s :     0.898068
      pz      :     0.043673  p :     0.077440
      px      :     0.019866
      py      :     0.013901
 33 H s       :     0.884804  s :     0.884804
      pz      :     0.022547  p :     0.070689
      px      :     0.022071
      py      :     0.026072


                      *****************************
                      * MAYER POPULATION ANALYSIS *
                      *****************************

  NA   - Mulliken gross atomic population
  ZA   - Total nuclear charge
  QA   - Mulliken gross atomic charge
  VA   - Mayer's total valence
  BVA  - Mayer's bonded valence
  FA   - Mayer's free valence

  ATOM       NA         ZA         QA         VA         BVA        FA
  0 S     15.8941    16.0000     0.1059     2.4361     2.4361     0.0000
  1 C      6.1133     6.0000    -0.1133     3.8494     3.8494    -0.0000
  2 C      6.0838     6.0000    -0.0838     4.0190     4.0190    -0.0000
  3 C      5.9384     6.0000     0.0616     3.9059     3.9059    -0.0000
  4 C      6.1796     6.0000    -0.1796     3.9204     3.9204    -0.0000
  5 H      0.9790     1.0000     0.0210     1.0103     1.0103    -0.0000
  6 C      5.9179     6.0000     0.0821     3.9740     3.9740    -0.0000
  7 H      0.9908     1.0000     0.0092     0.9892     0.9892     0.0000
  8 H      0.9816     1.0000     0.0184     0.9873     0.9873    -0.0000
  9 C      6.0668     6.0000    -0.0668     4.0619     4.0619     0.0000
 10 H      0.9937     1.0000     0.0063     0.9828     0.9828    -0.0000
 11 H      0.9983     1.0000     0.0017     0.9809     0.9809     0.0000
 12 C      5.9847     6.0000     0.0153     3.9986     3.9986    -0.0000
 13 H      0.9821     1.0000     0.0179     0.9902     0.9902    -0.0000
 14 H      0.9933     1.0000     0.0067     0.9946     0.9946     0.0000
 15 H      0.9653     1.0000     0.0347     0.9900     0.9900    -0.0000
 16 S     15.8748    16.0000     0.1252     2.4768     2.4768     0.0000
 17 C      6.0734     6.0000    -0.0734     3.8530     3.8530    -0.0000
 18 C      6.0683     6.0000    -0.0683     3.9914     3.9914    -0.0000
 19 C      6.0119     6.0000    -0.0119     4.0026     4.0026     0.0000
 20 C      6.1896     6.0000    -0.1896     3.9255     3.9255     0.0000
 21 H      0.9844     1.0000     0.0156     0.9944     0.9944    -0.0000
 22 C      5.9358     6.0000     0.0642     3.9477     3.9477     0.0000
 23 H      0.9534     1.0000     0.0466     0.9805     0.9805     0.0000
 24 H      0.9556     1.0000     0.0444     0.9900     0.9900     0.0000
 25 C      6.1019     6.0000    -0.1019     4.0730     4.0730    -0.0000
 26 H      0.9716     1.0000     0.0284     0.9869     0.9869     0.0000
 27 H      0.9824     1.0000     0.0176     0.9786     0.9786     0.0000
 28 C      6.0140     6.0000    -0.0140     3.9832     3.9832    -0.0000
 29 H      0.9976     1.0000     0.0024     0.9969     0.9969    -0.0000
 30 H      0.9703     1.0000     0.0297     0.9906     0.9906    -0.0000
 31 H      0.9585     1.0000     0.0415     0.9885     0.9885     0.0000
 32 H      0.9526     1.0000     0.0474     1.0050     1.0050     0.0000
 33 H      0.9411     1.0000     0.0589     0.9960     0.9960     0.0000

  Mayer bond orders larger than 0.100000
B(  0-S ,  1-C ) :   1.1214 B(  0-S ,  4-C ) :   1.1311 B(  1-C ,  2-C ) :   1.6353 
B(  1-C , 32-H ) :   0.9699 B(  2-C ,  3-C ) :   1.2070 B(  2-C ,  6-C ) :   1.0399 
B(  3-C ,  4-C ) :   1.6214 B(  3-C ,  5-H ) :   0.9852 B(  4-C , 20-C ) :   1.0133 
B(  6-C ,  7-H ) :   0.9362 B(  6-C ,  8-H ) :   0.9349 B(  6-C ,  9-C ) :   1.0616 
B(  9-C , 10-H ) :   0.9419 B(  9-C , 11-H ) :   0.9475 B(  9-C , 12-C ) :   1.0834 
B( 12-C , 13-H ) :   0.9693 B( 12-C , 14-H ) :   0.9747 B( 12-C , 15-H ) :   0.9722 
B( 16-S , 17-C ) :   1.1482 B( 16-S , 20-C ) :   1.1462 B( 17-C , 18-C ) :   1.6538 
B( 17-C , 33-H ) :   0.9567 B( 18-C , 19-C ) :   1.2132 B( 18-C , 21-H ) :   0.9858 
B( 19-C , 20-C ) :   1.6209 B( 19-C , 22-C ) :   1.0421 B( 22-C , 23-H ) :   0.9330 
B( 22-C , 24-H ) :   0.9319 B( 22-C , 25-C ) :   1.0558 B( 25-C , 26-H ) :   0.9517 
B( 25-C , 27-H ) :   0.9514 B( 25-C , 28-C ) :   1.0751 B( 28-C , 29-H ) :   0.9702 
B( 28-C , 30-H ) :   0.9728 B( 28-C , 31-H ) :   0.9747 

-------
TIMINGS
-------

Total SCF time: 0 days 0 hours 0 min 20 sec 

Total time                  ....      20.090 sec
Sum of individual times     ....      19.227 sec  ( 95.7%)

Fock matrix formation       ....      17.544 sec  ( 87.3%)
  XC integration            ....       1.462 sec  (  8.3% of F)
    Basis function eval.    ....       0.142 sec  (  9.7% of XC)
    Density eval.           ....       0.106 sec  (  7.3% of XC)
    XC-Functional eval.     ....       0.119 sec  (  8.1% of XC)
    XC-Potential eval.      ....       0.118 sec  (  8.1% of XC)
Diagonalization             ....       0.136 sec  (  0.7%)
Density matrix formation    ....       0.025 sec  (  0.1%)
Population analysis         ....       0.056 sec  (  0.3%)
Initial guess               ....       0.167 sec  (  0.8%)
Orbital Transformation      ....       0.000 sec  (  0.0%)
Orbital Orthonormalization  ....       0.000 sec  (  0.0%)
DIIS solution               ....       0.164 sec  (  0.8%)
SOSCF solution              ....       0.128 sec  (  0.6%)
Grid generation             ....       1.006 sec  (  5.0%)


-------------------------------------------------------------------------------
                          DFT DISPERSION CORRECTION                            
                                                                               
                              DFTD3 V3.1  Rev 1                                
                              USING zero damping                               
-------------------------------------------------------------------------------
The omegaB97X-D3 functional is recognized. Fit by Chai et al.
Active option DFTDOPT                   ...         3   

molecular C6(AA) [au] = 14163.153696 


            DFT-D V3
 parameters
 s6 scaling factor         :     1.0000 
 rs6 scaling factor        :     1.2810 
 s8 scaling factor         :     1.0000 
 rs8 scaling factor        :     1.0940 
 Damping factor alpha6     :    14.0000 
 Damping factor alpha8     :    16.0000 
 ad hoc parameters k1-k3   :    16.0000     1.3333    -4.0000 

 Edisp/kcal,au: -9.182056313879  -0.014632536581 
 E6   /kcal   :  -4.225004922 
 E8   /kcal   :  -4.957051392 
 % E8         :  53.986288284 

-------------------------   ----------------
Dispersion correction           -0.014632537
-------------------------   ----------------


-------------------------   --------------------
FINAL SINGLE POINT ENERGY     -1339.854423112369
-------------------------   --------------------


                            ***************************************
                            *     ORCA property calculations      *
                            ***************************************

                                    ---------------------
                                    Active property flags
                                    ---------------------
   (+) Dipole Moment


------------------------------------------------------------------------------
                       ORCA ELECTRIC PROPERTIES CALCULATION
------------------------------------------------------------------------------

Dipole Moment Calculation                       ... on
Quadrupole Moment Calculation                   ... off
Polarizability Calculation                      ... off
GBWName                                         ... config_955.gbw
Electron density file                           ... config_955.scfp
The origin for moment calculation is the CENTER OF MASS  = (-57.851670, 20.945111 22.565244)

-------------
DIPOLE MOMENT
-------------
                                X             Y             Z
Electronic contribution:     11.06064     -28.62223     -11.16038
Nuclear contribution   :    -11.27488      29.17842      11.61162
                        -----------------------------------------
Total Dipole Moment    :     -0.21423       0.55619       0.45124
                        -----------------------------------------
Magnitude (a.u.)       :      0.74757
Magnitude (Debye)      :      1.90017



--------------------
Rotational spectrum 
--------------------
 
Rotational constants in cm-1:     0.017647     0.009339     0.006712 
Rotational constants in MHz :   529.034256   279.983937   201.211000 

 Dipole components along the rotational axes: 
x,y,z [a.u.] :     0.284858     0.690386    -0.032889 
x,y,z [Debye]:     0.724052     1.754822    -0.083597 

 

Timings for individual modules:

Sum of individual times         ...       21.243 sec (=   0.354 min)
GTO integral calculation        ...        0.786 sec (=   0.013 min)   3.7 %
SCF iterations                  ...       20.457 sec (=   0.341 min)  96.3 %
                             ****ORCA TERMINATED NORMALLY****
TOTAL RUN TIME: 0 days 0 hours 0 minutes 21 seconds 930 msec
