
                                 *****************
                                 * O   R   C   A *
                                 *****************

           --- An Ab Initio, DFT and Semiempirical electronic structure package ---

                  #######################################################
                  #                        -***-                        #
                  #          Department of theory and spectroscopy      #
                  #               Directorship: Frank Neese             #
                  #        Max Planck Institute fuer Kohlenforschung    #
                  #                Kaiser Wilhelm Platz 1               #
                  #                 D-45470 Muelheim/Ruhr               #
                  #                      Germany                        #
                  #                                                     #
                  #                  All rights reserved                #
                  #                        -***-                        #
                  #######################################################


                         Program Version 4.2.1 -  RELEASE  -


 With contributions from (in alphabetic order):
   Daniel Aravena         : Magnetic Suceptibility
   Michael Atanasov       : Ab Initio Ligand Field Theory (pilot matlab implementation)
   Alexander A. Auer      : GIAO ZORA, VPT2
   Ute Becker             : Parallelization
   Giovanni Bistoni       : ED, misc. LED, open-shell LED, HFLD
   Martin Brehm           : Molecular dynamics
   Dmytro Bykov           : SCF Hessian
   Vijay G. Chilkuri      : MRCI spin determinant printing, contributions to CSF-ICE
   Dipayan Datta          : RHF DLPNO-CCSD density
   Achintya Kumar Dutta   : EOM-CC, STEOM-CC
   Dmitry Ganyushin       : Spin-Orbit,Spin-Spin,Magnetic field MRCI
   Miquel Garcia          : C-PCM Hessian, Gaussian charge scheme
   Yang Guo               : DLPNO-NEVPT2, CIM, IAO-localization
   Andreas Hansen         : Spin unrestricted coupled pair/coupled cluster methods
   Benjamin Helmich-Paris : CASSCF linear response (MC-RPA)
   Lee Huntington         : MR-EOM, pCC
   Robert Izsak           : Overlap fitted RIJCOSX, COSX-SCS-MP3, EOM
   Christian Kollmar      : KDIIS, OOCD, Brueckner-CCSD(T), CCSD density
   Simone Kossmann        : Meta GGA functionals, TD-DFT gradient, OOMP2, MP2 Hessian
   Martin Krupicka        : AUTO-CI
   Lucas Lang             : DCDCAS
   Dagmar Lenk            : GEPOL surface, SMD
   Dimitrios Liakos       : Extrapolation schemes; Compound Job, initial MDCI parallelization
   Dimitrios Manganas     : Further ROCIS development; embedding schemes
   Dimitrios Pantazis     : SARC Basis sets
   Taras Petrenko         : DFT Hessian,TD-DFT gradient, ASA, ECA, R-Raman, ABS, FL, XAS/XES, NRVS
   Peter Pinski           : DLPNO-MP2, DLPNO-MP2 Gradient
   Christoph Reimann      : Effective Core Potentials
   Marius Retegan         : Local ZFS, SOC
   Christoph Riplinger    : Optimizer, TS searches, QM/MM, DLPNO-CCSD(T), (RO)-DLPNO pert. Triples
   Tobias Risthaus        : Range-separated hybrids, TD-DFT gradient, RPA, STAB
   Michael Roemelt        : Original ROCIS implementation
   Masaaki Saitow         : Open-shell DLPNO-CCSD energy and density
   Barbara Sandhoefer     : DKH picture change effects
   Avijit Sen             : IP-ROCIS
   Kantharuban Sivalingam : CASSCF convergence, NEVPT2, FIC-MRCI
   Bernardo de Souza      : ESD, SOC TD-DFT
   Georgi Stoychev        : AutoAux, RI-MP2 NMR
   Willem Van den Heuvel  : Paramagnetic NMR
   Boris Wezisla          : Elementary symmetry handling
   Frank Wennmohs         : Technical directorship


 We gratefully acknowledge several colleagues who have allowed us to
 interface, adapt or use parts of their codes:
   Stefan Grimme, W. Hujo, H. Kruse,             : VdW corrections, initial TS optimization,
                  C. Bannwarth                     DFT functionals, gCP, sTDA/sTD-DF
   Ed Valeev, F. Pavosevic, A. Kumar             : LibInt (2-el integral package), F12 methods
   Garnet Chan, S. Sharma, J. Yang, R. Olivares  : DMRG
   Ulf Ekstrom                                   : XCFun DFT Library
   Mihaly Kallay                                 : mrcc  (arbitrary order and MRCC methods)
   Andreas Klamt, Michael Diedenhofen            : otool_cosmo (COSMO solvation model)
   Jiri Pittner, Ondrej Demel                    : Mk-CCSD
   Frank Weinhold                                : gennbo (NPA and NBO analysis)
   Christopher J. Cramer and Donald G. Truhlar   : smd solvation model
   Lars Goerigk                                  : TD-DFT with DH, B97 family of functionals
   V. Asgeirsson, H. Jonsson                     : NEB implementation
   FAccTs GmbH                                   : IRC, NEB, NEB-TS, Multilevel, MM, QM/MM, CI optimization
   S Lehtola, MJT Oliveira, MAL Marques          : LibXC Library


 Your calculation uses the libint2 library for the computation of 2-el integrals
 For citations please refer to: http://libint.valeyev.net

 Your ORCA version has been built with support for libXC version: 4.2.3
 For citations please refer to: https://tddft.org/programs/libxc/

 This ORCA versions uses:
   CBLAS   interface :  Fast vector & matrix operations
   LAPACKE interface :  Fast linear algebra routines
   SCALAPACK package :  Parallel linear algebra routines


Your calculation utilizes the atom-pairwise dispersion correction
with the zero-damping scheme (D30)
Cite in your paper:
S.Grimme, J.Antony, S.Ehrlich and H.Krieg, J.Chem.Phys., 132, (2010), 154104 
   

XCFun DFT library Copyright 2009-2010 Ulf Ekstrom and contributors.
See http://admol.org/xcfun for more information. This is free soft-
ware; see the source code for copying conditions. There is ABSOLUTELY
NO WARRANTY; not even for MERCHANTABILITY or FITNESS FOR A PARTICULAR
PURPOSE. For details see the documentation. Scientific users of this 
library should cite U. Ekstrom, L. Visscher, R. Bast, A. J. Thorvald-
sen and K. Ruud; J.Chem.Theor.Comp. 2010, DOI: 10.1021/ct100117s
XCFun Version 0.99 
----- Orbital basis set information -----
Your calculation utilizes the basis: def2-SVP
   F. Weigend and R. Ahlrichs, Phys. Chem. Chem. Phys. 7, 3297 (2005).

================================================================================
                                        WARNINGS
                       Please study these warnings very carefully!
================================================================================


INFO   : the flag for use of LIBINT has been found!

================================================================================
                                       INPUT FILE
================================================================================
NAME = config_8325.inp
|  1> ! wB97X-D3 SP def2-SVP
|  2> %pal
|  3> nprocs 24
|  4> end
|  5> 
|  6> * xyz 0 1
|  7> S 	 -52.5652 	 -44.1097 	 -76.8741 	 
|  8> C 	 -53.5662 	 -44.0336 	 -78.2911 	 
|  9> C 	 -52.7787 	 -44.187 	 -79.447 	 
| 10> C 	 -51.3928 	 -44.4416 	 -79.162 	 
| 11> C 	 -51.129 	 -44.4247 	 -77.7621 	 
| 12> H 	 -50.6969 	 -44.6682 	 -79.8862 	 
| 13> C 	 -53.3738 	 -44.152 	 -80.8819 	 
| 14> H 	 -53.1539 	 -43.2007 	 -81.2719 	 
| 15> H 	 -54.418 	 -44.1636 	 -80.6896 	 
| 16> C 	 -52.9044 	 -45.3355 	 -81.8008 	 
| 17> H 	 -51.8162 	 -45.4173 	 -81.8154 	 
| 18> H 	 -53.3495 	 -46.3438 	 -81.5777 	 
| 19> C 	 -53.3574 	 -45.0526 	 -83.2573 	 
| 20> H 	 -52.6502 	 -44.2141 	 -83.5986 	 
| 21> H 	 -53.1249 	 -45.9143 	 -83.8333 	 
| 22> H 	 -54.3809 	 -44.8115 	 -83.4891 	 
| 23> S 	 -50.0875 	 -45.8676 	 -75.6564 	 
| 24> C 	 -48.3207 	 -45.7543 	 -75.3914 	 
| 25> C 	 -47.6561 	 -44.9699 	 -76.2907 	 
| 26> C 	 -48.6006 	 -44.3695 	 -77.2273 	 
| 27> C 	 -49.9071 	 -44.7878 	 -77.0114 	 
| 28> H 	 -46.5747 	 -44.8249 	 -76.254 	 
| 29> C 	 -48.0838 	 -43.575 	 -78.4024 	 
| 30> H 	 -49.0015 	 -43.2425 	 -78.9303 	 
| 31> H 	 -47.5575 	 -44.3835 	 -78.9311 	 
| 32> C 	 -47.2071 	 -42.351 	 -78.0876 	 
| 33> H 	 -46.4411 	 -42.7129 	 -77.401 	 
| 34> H 	 -47.7069 	 -41.5216 	 -77.5133 	 
| 35> C 	 -46.5015 	 -41.7886 	 -79.2724 	 
| 36> H 	 -45.5404 	 -42.3806 	 -79.3849 	 
| 37> H 	 -46.25 	 -40.7411 	 -79.0194 	 
| 38> H 	 -46.9592 	 -41.8643 	 -80.2335 	 
| 39> H 	 -54.6494 	 -43.9271 	 -78.2888 	 
| 40> H 	 -47.827 	 -46.4195 	 -74.6978 	 
| 41> *
| 42> 
| 43>                          ****END OF INPUT****
================================================================================

                       ****************************
                       * Single Point Calculation *
                       ****************************

---------------------------------
CARTESIAN COORDINATES (ANGSTROEM)
---------------------------------
  S    -52.565200  -44.109700  -76.874100
  C    -53.566200  -44.033600  -78.291100
  C    -52.778700  -44.187000  -79.447000
  C    -51.392800  -44.441600  -79.162000
  C    -51.129000  -44.424700  -77.762100
  H    -50.696900  -44.668200  -79.886200
  C    -53.373800  -44.152000  -80.881900
  H    -53.153900  -43.200700  -81.271900
  H    -54.418000  -44.163600  -80.689600
  C    -52.904400  -45.335500  -81.800800
  H    -51.816200  -45.417300  -81.815400
  H    -53.349500  -46.343800  -81.577700
  C    -53.357400  -45.052600  -83.257300
  H    -52.650200  -44.214100  -83.598600
  H    -53.124900  -45.914300  -83.833300
  H    -54.380900  -44.811500  -83.489100
  S    -50.087500  -45.867600  -75.656400
  C    -48.320700  -45.754300  -75.391400
  C    -47.656100  -44.969900  -76.290700
  C    -48.600600  -44.369500  -77.227300
  C    -49.907100  -44.787800  -77.011400
  H    -46.574700  -44.824900  -76.254000
  C    -48.083800  -43.575000  -78.402400
  H    -49.001500  -43.242500  -78.930300
  H    -47.557500  -44.383500  -78.931100
  C    -47.207100  -42.351000  -78.087600
  H    -46.441100  -42.712900  -77.401000
  H    -47.706900  -41.521600  -77.513300
  C    -46.501500  -41.788600  -79.272400
  H    -45.540400  -42.380600  -79.384900
  H    -46.250000  -40.741100  -79.019400
  H    -46.959200  -41.864300  -80.233500
  H    -54.649400  -43.927100  -78.288800
  H    -47.827000  -46.419500  -74.697800

----------------------------
CARTESIAN COORDINATES (A.U.)
----------------------------
  NO LB      ZA    FRAG     MASS         X           Y           Z
   0 S    16.0000    0    32.060  -99.333832  -83.355253  -145.270996
   1 C     6.0000    0    12.011  -101.225448  -83.211445  -147.948738
   2 C     6.0000    0    12.011  -99.737289  -83.501329  -150.133072
   3 C     6.0000    0    12.011  -97.118317  -83.982453  -149.594500
   4 C     6.0000    0    12.011  -96.619808  -83.950517  -146.949073
   5 H     1.0000    0     1.008  -95.803257  -84.410665  -150.963040
   6 C     6.0000    0    12.011  -100.861865  -83.435188  -152.844640
   7 H     1.0000    0     1.008  -100.446314  -81.637492  -153.581633
   8 H     1.0000    0     1.008  -102.835117  -83.457109  -152.481246
   9 C     6.0000    0    12.011  -99.974827  -85.671679  -154.581110
  10 H     1.0000    0     1.008  -97.918427  -85.826259  -154.608700
  11 H     1.0000    0     1.008  -100.815944  -87.577090  -154.159512
  12 C     6.0000    0    12.011  -100.830873  -85.137076  -157.333496
  13 H     1.0000    0     1.008  -99.494459  -83.552540  -157.978459
  14 H     1.0000    0     1.008  -100.391512  -86.765453  -158.421978
  15 H     1.0000    0     1.008  -102.765008  -84.681463  -157.771534
  16 S    16.0000    0    32.060  -94.651658  -86.677202  -142.969876
  17 C     6.0000    0    12.011  -91.312890  -86.463096  -142.469099
  18 C     6.0000    0    12.011  -90.056978  -84.980795  -144.168530
  19 C     6.0000    0    12.011  -91.841824  -83.846204  -145.938447
  20 C     6.0000    0    12.011  -94.310751  -84.636676  -145.530455
  21 H     1.0000    0     1.008  -88.013428  -84.706785  -144.099177
  22 C     6.0000    0    12.011  -90.865213  -82.344816  -148.159064
  23 H     1.0000    0     1.008  -92.599415  -81.716482  -149.156651
  24 H     1.0000    0     1.008  -89.870651  -83.872660  -149.158162
  25 C     6.0000    0    12.011  -89.208491  -80.031791  -147.564178
  26 H     1.0000    0     1.008  -87.760960  -80.715683  -146.266692
  27 H     1.0000    0     1.008  -90.152976  -78.464453  -146.478909
  28 C     6.0000    0    12.011  -87.875100  -78.969010  -149.803126
  29 H     1.0000    0     1.008  -86.058884  -80.087727  -150.015720
  30 H     1.0000    0     1.008  -87.399834  -76.989521  -149.325025
  31 H     1.0000    0     1.008  -88.740027  -79.112062  -151.619342
  32 H     1.0000    0     1.008  -103.272399  -83.010189  -147.944391
  33 H     1.0000    0     1.008  -90.379932  -87.720142  -141.158385

--------------------------------
INTERNAL COORDINATES (ANGSTROEM)
--------------------------------
 S      0   0   0     0.000000000000     0.00000000     0.00000000
 C      1   0   0     1.736571682943     0.00000000     0.00000000
 C      2   1   0     1.407051036743   110.05594746     0.00000000
 C      3   2   1     1.437624766759   113.32795721     3.44768244
 C      4   3   2     1.424638922675   111.79012159   357.59529860
 H      4   3   2     1.029606725891   123.44304344   173.88915573
 C      3   2   1     1.553804048135   122.80823033   180.61534414
 H      7   3   2     1.051393218544   106.42904274   102.16599981
 H      7   3   2     1.061822720608   102.07243827   350.78854886
 C      7   3   2     1.570154712122   114.14009283   228.45514372
 H     10   7   3     1.091367784022   111.24812022   307.64212263
 H     10   7   3     1.124525015284   116.19382447    73.51627122
 C     10   7   3     1.551332865635   108.94771522   189.92917738
 H     13  10   7     1.148781867893   103.43125317    73.08389319
 H     13  10   7     1.062242505269   107.29289818   186.24764322
 H     13  10   7     1.076760279728   121.36656399   307.88877783
 S      5   4   3     2.756928571799   144.51480950   124.59330839
 C     17   5   4     1.790151985168   116.92267344    85.59836783
 C     18  17   5     1.365912519161   114.77761843   358.84873266
 C     19  18  17     1.459376568950   110.11465628     2.35070789
 C     20  19  18     1.388715215586   112.65496709   357.24836165
 H     19  18  17     1.091694943654   122.41951403   180.86670869
 C     20  19  18     1.509692849556   119.63712421   186.32843963
 H     23  20  19     1.109688221979   104.17455043   180.15183898
 H     23  20  19     1.100085283058    98.68957770    63.88016549
 C     23  20  19     1.538141063102   117.03889774   300.90670346
 H     26  23  20     1.090480247414   105.37547222    50.62658379
 H     26  23  20     1.125844078903   115.95105748   296.73219885
 C     26  23  20     1.489266987481   114.06269630   167.76042759
 H     29  26  23     1.134386821151   106.45347317   274.46419075
 H     29  26  23     1.106579188310   106.45515221   158.38431759
 H     29  26  23     1.067208035015   119.10922561    31.03630434
 H      2   1   3     1.088425367216   125.18507013   177.50503967
 H     18  17   5     1.080421996259   120.46789733   190.51317453

---------------------------
INTERNAL COORDINATES (A.U.)
---------------------------
 S      0   0   0     0.000000000000     0.00000000     0.00000000
 C      1   0   0     3.281644892685     0.00000000     0.00000000
 C      2   1   0     2.658941115895   110.05594746     0.00000000
 C      3   2   1     2.716717092518   113.32795721     3.44768244
 C      4   3   2     2.692177403580   111.79012159   357.59529860
 H      4   3   2     1.945674737577   123.44304344   173.88915573
 C      3   2   1     2.936264116753   122.80823033   180.61534414
 H      7   3   2     1.986845242110   106.42904274   102.16599981
 H      7   3   2     2.006554144725   102.07243827   350.78854886
 C      7   3   2     2.967162393797   114.14009283   228.45514372
 H     10   7   3     2.062386223185   111.24812022   307.64212263
 H     10   7   3     2.125044309631   116.19382447    73.51627122
 C     10   7   3     2.931594258602   108.94771522   189.92917738
 H     13  10   7     2.170883117932   103.43125317    73.08389319
 H     13  10   7     2.007347422769   107.29289818   186.24764322
 H     13  10   7     2.034782040570   121.36656399   307.88877783
 S      5   4   3     5.209839971482   144.51480950   124.59330839
 C     17   5   4     3.382896990062   116.92267344    85.59836783
 C     18  17   5     2.581200584108   114.77761843   358.84873266
 C     19  18  17     2.757822041577   110.11465628     2.35070789
 C     20  19  18     2.624291435467   112.65496709   357.24836165
 H     19  18  17     2.063004465293   122.41951403   180.86670869
 C     20  19  18     2.852906032000   119.63712421   186.32843963
 H     23  20  19     2.097006833579   104.17455043   180.15183898
 H     23  20  19     2.078859908936    98.68957770    63.88016549
 C     23  20  19     2.906665364601   117.03889774   300.90670346
 H     26  23  20     2.060709022063   105.37547222    50.62658379
 H     26  23  20     2.127536978623   115.95105748   296.73219885
 C     26  23  20     2.814306746629   114.06269630   167.76042759
 H     29  26  23     2.143680421904   106.45347317   274.46419075
 H     29  26  23     2.091131611402   106.45515221   158.38431759
 H     29  26  23     2.016730914098   119.10922561    31.03630434
 H      2   1   3     2.056825861252   125.18507013   177.50503967
 H     18  17   5     2.041701681994   120.46789733   190.51317453

---------------------
BASIS SET INFORMATION
---------------------
There are 3 groups of distinct atoms

 Group   1 Type S   : 10s7p1d contracted to 4s3p1d pattern {5311/511/1}
 Group   2 Type C   : 7s4p1d contracted to 3s2p1d pattern {511/31/1}
 Group   3 Type H   : 4s1p contracted to 2s1p pattern {31/1}

Atom   0S    basis set group =>   1
Atom   1C    basis set group =>   2
Atom   2C    basis set group =>   2
Atom   3C    basis set group =>   2
Atom   4C    basis set group =>   2
Atom   5H    basis set group =>   3
Atom   6C    basis set group =>   2
Atom   7H    basis set group =>   3
Atom   8H    basis set group =>   3
Atom   9C    basis set group =>   2
Atom  10H    basis set group =>   3
Atom  11H    basis set group =>   3
Atom  12C    basis set group =>   2
Atom  13H    basis set group =>   3
Atom  14H    basis set group =>   3
Atom  15H    basis set group =>   3
Atom  16S    basis set group =>   1
Atom  17C    basis set group =>   2
Atom  18C    basis set group =>   2
Atom  19C    basis set group =>   2
Atom  20C    basis set group =>   2
Atom  21H    basis set group =>   3
Atom  22C    basis set group =>   2
Atom  23H    basis set group =>   3
Atom  24H    basis set group =>   3
Atom  25C    basis set group =>   2
Atom  26H    basis set group =>   3
Atom  27H    basis set group =>   3
Atom  28C    basis set group =>   2
Atom  29H    basis set group =>   3
Atom  30H    basis set group =>   3
Atom  31H    basis set group =>   3
Atom  32H    basis set group =>   3
Atom  33H    basis set group =>   3


           ************************************************************
           *        Program running with 24 parallel MPI-processes    *
           *              working on a common directory               *
           ************************************************************
------------------------------------------------------------------------------
                           ORCA GTO INTEGRAL CALCULATION
------------------------------------------------------------------------------

                         BASIS SET STATISTICS AND STARTUP INFO

 # of primitive gaussian shells          ...  294
 # of primitive gaussian functions       ...  534
 # of contracted shells                  ...  154
 # of contracted basis functions         ...  322
 Highest angular momentum                ...    2
 Maximum contraction depth               ...    5
 Integral package used                   ... LIBINT
 Integral threshhold            Thresh   ...  1.000e-10
 Primitive cut-off              TCut     ...  1.000e-11


------------------------------ INTEGRAL EVALUATION ----------------------------


 * One electron integrals 
 Pre-screening matrix                    ... done
 Shell pair data                         ... done (   0.003 sec)



           ************************************************************
           *        Program running with 24 parallel MPI-processes    *
           *              working on a common directory               *
           ************************************************************
-------------------------------------------------------------------------------
                                 ORCA SCF
-------------------------------------------------------------------------------

------------
SCF SETTINGS
------------
Hamiltonian:
 Density Functional     Method          .... DFT(GTOs)
 Exchange Functional    Exchange        .... WB97X-D3
 Correlation Functional Correlation     .... WB97X-D3
 Gradients option       PostSCFGGA      .... off
 Hybrid DFT is turned on
   Fraction HF Exchange ScalHFX         ....  0.195728
   Scaling of DF-GGA-X  ScalDFX         ....  0.000000
   Scaling of DF-GGA-C  ScalDFC         ....  1.000000
   Scaling of DF-LDA-C  ScalLDAC        ....  1.000000
   Perturbative correction              ....  0.000000
   Density functional embedding theory  .... OFF
 Long-range corrected/Screened/Range-Separated Hybrid DFT is turned on
   Amount of maximum screened exact exchange              ....  0.804272
   Range separation parameter mu (erf(mu*r12)/r12)        ....  0.250000


General Settings:
 Integral files         IntName         .... config_8325
 Hartree-Fock type      HFTyp           .... RHF
 Total Charge           Charge          ....    0
 Multiplicity           Mult            ....    1
 Number of Electrons    NEL             ....  134
 Basis Dimension        Dim             ....  322
 Nuclear Repulsion      ENuc            ....   1262.7338448274 Eh

Convergence Acceleration:
 DIIS                   CNVDIIS         .... on
   Start iteration      DIISMaxIt       ....    12
   Startup error        DIISStart       ....  0.200000
   # of expansion vecs  DIISMaxEq       ....     5
   Bias factor          DIISBfac        ....   1.050
   Max. coefficient     DIISMaxC        ....  10.000
 Newton-Raphson         CNVNR           .... off
 SOSCF                  CNVSOSCF        .... on
   Start iteration      SOSCFMaxIt      ....   150
   Startup grad/error   SOSCFStart      ....  0.003300
 Level Shifting         CNVShift        .... on
   Level shift para.    LevelShift      ....    0.2500
   Turn off err/grad.   ShiftErr        ....    0.0010
 Zerner damping         CNVZerner       .... off
 Static damping         CNVDamp         .... on
   Fraction old density DampFac         ....    0.7000
   Max. Damping (<1)    DampMax         ....    0.9800
   Min. Damping (>=0)   DampMin         ....    0.0000
   Turn off err/grad.   DampErr         ....    0.1000
 Fernandez-Rico         CNVRico         .... off

SCF Procedure:
 Maximum # iterations   MaxIter         ....   125
 SCF integral mode      SCFMode         .... Direct
   Integral package                     .... LIBINT
 Reset frequency        DirectResetFreq ....    20
 Integral Threshold     Thresh          ....  1.000e-10 Eh
 Primitive CutOff       TCut            ....  1.000e-11 Eh

Convergence Tolerance:
 Convergence Check Mode ConvCheckMode   .... Total+1el-Energy
 Convergence forced     ConvForced      .... 0
 Energy Change          TolE            ....  1.000e-06 Eh
 1-El. energy change                    ....  1.000e-03 Eh
 Orbital Gradient       TolG            ....  5.000e-05
 Orbital Rotation angle TolX            ....  5.000e-05
 DIIS Error             TolErr          ....  1.000e-06


Diagonalization of the overlap matrix:
Smallest eigenvalue                        ... 7.336e-04
Time for diagonalization                   ...    0.015 sec
Threshold for overlap eigenvalues          ... 1.000e-08
Number of eigenvalues below threshold      ... 0
Time for construction of square roots      ...    0.027 sec
Total time needed                          ...    0.043 sec

-------------------
DFT GRID GENERATION
-------------------

General Integration Accuracy     IntAcc      ...  4.340
Radial Grid Type                 RadialGrid  ... Gauss-Chebyshev
Angular Grid (max. acc.)         AngularGrid ... Lebedev-110
Angular grid pruning method      GridPruning ... 3 (G Style)
Weight generation scheme         WeightScheme... Becke
Basis function cutoff            BFCut       ...    1.0000e-10
Integration weight cutoff        WCut        ...    1.0000e-14
Grids for H and He will be reduced by one unit

# of grid points (after initial pruning)     ...  41088 (   0.0 sec)
# of grid points (after weights+screening)   ...  37132 (   0.0 sec)
nearest neighbour list constructed           ...    0.0 sec
Grid point re-assignment to atoms done       ...    0.0 sec
Grid point division into batches done        ...    0.0 sec
Reduced shell lists constructed in    0.1 sec

Total number of grid points                  ...    37132
Total number of batches                      ...      599
Average number of points per batch           ...       61
Average number of grid points per atom       ...     1092
Average number of shells per batch           ...    69.38 (45.05%)
Average number of basis functions per batch  ...   137.54 (42.71%)
Average number of large shells per batch     ...    43.69 (62.97%)
Average number of large basis fcns per batch ...    91.38 (66.44%)
Maximum spatial batch extension              ...  10.76, 15.82, 18.74 au
Average spatial batch extension              ...   0.14,  0.19,  0.18 au

Time for grid setup =    0.147 sec

------------------------------
INITIAL GUESS: MODEL POTENTIAL
------------------------------
Loading Hartree-Fock densities                     ... done
Calculating cut-offs                               ... done
Setting up the integral package                    ... done
Initializing the effective Hamiltonian             ... done
Starting the Coulomb interaction                   ... done (   0.0 sec)
Reading the grid                                   ... done
Mapping shells                                     ... done
Starting the XC term evaluation                    ... done (   0.0 sec)
  promolecular density results
     # of electrons  =    133.994026242
     EX              =   -126.685054480
     EC              =     -4.614794294
     EX+EC           =   -131.299848774
Transforming the Hamiltonian                       ... done (   0.0 sec)
Diagonalizing the Hamiltonian                      ... done (   0.0 sec)
Back transforming the eigenvectors                 ... done (   0.0 sec)
Now organizing SCF variables                       ... done
                      ------------------
                      INITIAL GUESS DONE (   0.3 sec)
                      ------------------
--------------
SCF ITERATIONS
--------------
ITER       Energy         Delta-E        Max-DP      RMS-DP      [F,P]     Damp
               ***  Starting incremental Fock matrix formation  ***
  0  -1339.4337599165   0.000000000000 0.06559608  0.00154332  0.1604087 0.7000
  1  -1339.6157764954  -0.182016578960 0.04388325  0.00112724  0.0969693 0.7000
                               ***Turning on DIIS***
  2  -1339.7040368264  -0.088260330935 0.09257319  0.00212888  0.0502572 0.0000
  3  -1339.8371505476  -0.133113721227 0.04242064  0.00095879  0.0481569 0.0000
  4  -1339.8658273280  -0.028676780373 0.00763784  0.00019706  0.0075559 0.0000
  5  -1339.8667318449  -0.000904516900 0.00320635  0.00009696  0.0035191 0.0000
                      *** Initiating the SOSCF procedure ***
                           *** Shutting down DIIS ***
                      *** Re-Reading the Fockian *** 
                      *** Removing any level shift *** 
ITER      Energy       Delta-E        Grad      Rot      Max-DP    RMS-DP
  6  -1339.86692265  -0.0001908050  0.001652  0.001652  0.001909  0.000050
               *** Restarting incremental Fock matrix formation ***
  7  -1339.86697699  -0.0000543378  0.000943  0.002620  0.001794  0.000031
  8  -1339.86699900  -0.0000220112  0.000462  0.003327  0.002213  0.000041
  9  -1339.86700410  -0.0000051001  0.000370  0.000765  0.000541  0.000013
 10  -1339.86700700  -0.0000028995  0.000083  0.000202  0.000303  0.000005
 11  -1339.86700709  -0.0000000964  0.000026  0.000051  0.000116  0.000002
                  ***Gradient check signals convergence***
              ***Rediagonalizing the Fockian in SOSCF/NRSCF***

               *****************************************************
               *                     SUCCESS                       *
               *           SCF CONVERGED AFTER  12 CYCLES          *
               *****************************************************

Setting up the final grid:

General Integration Accuracy     IntAcc      ...  4.670
Radial Grid Type                 RadialGrid  ... Gauss-Chebyshev
Angular Grid (max. acc.)         AngularGrid ... Lebedev-302
Angular grid pruning method      GridPruning ... 3 (G Style)
Weight generation scheme         WeightScheme... Becke
Basis function cutoff            BFCut       ...    1.0000e-10
Integration weight cutoff        WCut        ...    1.0000e-14
Grids for H and He will be reduced by one unit

# of grid points (after initial pruning)     ... 161752 (   0.0 sec)
# of grid points (after weights+screening)   ... 143399 (   0.1 sec)
nearest neighbour list constructed           ...    0.0 sec
Grid point re-assignment to atoms done       ...    0.0 sec
Grid point division into batches done        ...    0.5 sec
Reduced shell lists constructed in    0.5 sec

Total number of grid points                  ...   143399
Total number of batches                      ...     2260
Average number of points per batch           ...       63
Average number of grid points per atom       ...     4218
Average number of shells per batch           ...    63.73 (41.38%)
Average number of basis functions per batch  ...   126.46 (39.27%)
Average number of large shells per batch     ...    39.01 (61.21%)
Average number of large basis fcns per batch ...    81.61 (64.54%)
Maximum spatial batch extension              ...  12.94, 15.06, 12.29 au
Average spatial batch extension              ...   0.11,  0.12,  0.11 au

Final grid set up in    0.8 sec
Final integration                            ... done (   0.2 sec)
Change in XC energy                          ...     0.006514124
Integrated number of electrons               ...   133.999840707
Previous integrated no of electrons          ...   134.003004752

----------------
TOTAL SCF ENERGY
----------------

Total Energy       :        -1339.86049304 Eh          -36459.45758 eV

Components:
Nuclear Repulsion  :         1262.73384483 Eh           34360.73478 eV
Electronic Energy  :        -2602.59433787 Eh          -70820.19236 eV
One Electron Energy:        -4342.18946617 Eh         -118156.98236 eV
Two Electron Energy:         1739.59512830 Eh           47336.79000 eV

Virial components:
Potential Energy   :        -2671.14018011 Eh          -72685.41956 eV
Kinetic Energy     :         1331.27968707 Eh           36225.96198 eV
Virial Ratio       :            2.00644553


DFT components:
N(Alpha)           :       66.999920353455 electrons
N(Beta)            :       66.999920353455 electrons
N(Total)           :      133.999840706910 electrons
E(XC)              :      -94.211480163452 Eh       
DFET-embed. en.    :        0.000000000000 Eh       

---------------
SCF CONVERGENCE
---------------

  Last Energy change         ...   -6.9002e-08  Tolerance :   1.0000e-06
  Last MAX-Density change    ...    2.4784e-05  Tolerance :   1.0000e-05
  Last RMS-Density change    ...    4.1756e-07  Tolerance :   1.0000e-06
  Last Orbital Gradient      ...    4.7016e-06  Tolerance :   5.0000e-05
  Last Orbital Rotation      ...    1.8933e-05  Tolerance :   5.0000e-05

             **** THE GBW FILE WAS UPDATED (config_8325.gbw) ****
             **** DENSITY FILE WAS UPDATED (config_8325.scfp) ****
             **** ENERGY FILE WAS UPDATED (config_8325.en.tmp) ****
             **** THE GBW FILE WAS UPDATED (config_8325.gbw) ****
             **** DENSITY FILE WAS UPDATED (config_8325.scfp) ****
----------------
ORBITAL ENERGIES
----------------

  NO   OCC          E(Eh)            E(eV) 
   0   2.0000     -88.965781     -2420.8820 
   1   2.0000     -88.965731     -2420.8806 
   2   2.0000     -10.331653      -281.1386 
   3   2.0000     -10.325887      -280.9817 
   4   2.0000     -10.318409      -280.7782 
   5   2.0000     -10.312128      -280.6073 
   6   2.0000     -10.303124      -280.3623 
   7   2.0000     -10.302561      -280.3469 
   8   2.0000     -10.297651      -280.2133 
   9   2.0000     -10.296986      -280.1952 
  10   2.0000     -10.293231      -280.0931 
  11   2.0000     -10.292067      -280.0614 
  12   2.0000     -10.290625      -280.0221 
  13   2.0000     -10.287481      -279.9366 
  14   2.0000     -10.279698      -279.7248 
  15   2.0000     -10.278471      -279.6914 
  16   2.0000      -8.080996      -219.8951 
  17   2.0000      -8.080157      -219.8723 
  18   2.0000      -6.039407      -164.3406 
  19   2.0000      -6.038720      -164.3219 
  20   2.0000      -6.035236      -164.2271 
  21   2.0000      -6.034887      -164.2176 
  22   2.0000      -6.032037      -164.1401 
  23   2.0000      -6.030684      -164.1032 
  24   2.0000      -1.003509       -27.3069 
  25   2.0000      -0.979345       -26.6493 
  26   2.0000      -0.911405       -24.8006 
  27   2.0000      -0.905350       -24.6358 
  28   2.0000      -0.866149       -23.5691 
  29   2.0000      -0.854724       -23.2582 
  30   2.0000      -0.844241       -22.9730 
  31   2.0000      -0.815217       -22.1832 
  32   2.0000      -0.780756       -21.2455 
  33   2.0000      -0.766005       -20.8440 
  34   2.0000      -0.706762       -19.2320 
  35   2.0000      -0.695998       -18.9391 
  36   2.0000      -0.688388       -18.7320 
  37   2.0000      -0.659343       -17.9416 
  38   2.0000      -0.640249       -17.4221 
  39   2.0000      -0.620104       -16.8739 
  40   2.0000      -0.591573       -16.0975 
  41   2.0000      -0.569322       -15.4920 
  42   2.0000      -0.566937       -15.4271 
  43   2.0000      -0.558259       -15.1910 
  44   2.0000      -0.533615       -14.5204 
  45   2.0000      -0.528140       -14.3714 
  46   2.0000      -0.513652       -13.9772 
  47   2.0000      -0.507737       -13.8162 
  48   2.0000      -0.505396       -13.7525 
  49   2.0000      -0.498385       -13.5618 
  50   2.0000      -0.495031       -13.4705 
  51   2.0000      -0.474653       -12.9160 
  52   2.0000      -0.471638       -12.8339 
  53   2.0000      -0.469759       -12.7828 
  54   2.0000      -0.456233       -12.4147 
  55   2.0000      -0.454786       -12.3753 
  56   2.0000      -0.446175       -12.1410 
  57   2.0000      -0.438100       -11.9213 
  58   2.0000      -0.433523       -11.7968 
  59   2.0000      -0.424614       -11.5543 
  60   2.0000      -0.419911       -11.4264 
  61   2.0000      -0.407665       -11.0931 
  62   2.0000      -0.406546       -11.0627 
  63   2.0000      -0.349319        -9.5055 
  64   2.0000      -0.329189        -8.9577 
  65   2.0000      -0.328453        -8.9377 
  66   2.0000      -0.286868        -7.8061 
  67   0.0000       0.031617         0.8603 
  68   0.0000       0.075539         2.0555 
  69   0.0000       0.106982         2.9111 
  70   0.0000       0.120455         3.2778 
  71   0.0000       0.136062         3.7024 
  72   0.0000       0.142380         3.8744 
  73   0.0000       0.144584         3.9343 
  74   0.0000       0.155326         4.2266 
  75   0.0000       0.165186         4.4950 
  76   0.0000       0.167467         4.5570 
  77   0.0000       0.174005         4.7349 
  78   0.0000       0.186619         5.0782 
  79   0.0000       0.191350         5.2069 
  80   0.0000       0.197777         5.3818 
  81   0.0000       0.203957         5.5499 
  82   0.0000       0.212821         5.7911 
  83   0.0000       0.213324         5.8048 
  84   0.0000       0.218772         5.9531 
  85   0.0000       0.229364         6.2413 
  86   0.0000       0.234735         6.3875 
  87   0.0000       0.240586         6.5467 
  88   0.0000       0.246374         6.7042 
  89   0.0000       0.257118         6.9965 
  90   0.0000       0.264927         7.2090 
  91   0.0000       0.270711         7.3664 
  92   0.0000       0.282721         7.6932 
  93   0.0000       0.301599         8.2069 
  94   0.0000       0.308895         8.4055 
  95   0.0000       0.310814         8.4577 
  96   0.0000       0.319927         8.7056 
  97   0.0000       0.326088         8.8733 
  98   0.0000       0.346085         9.4175 
  99   0.0000       0.360118         9.7993 
 100   0.0000       0.370805        10.0901 
 101   0.0000       0.385917        10.5013 
 102   0.0000       0.407337        11.0842 
 103   0.0000       0.419097        11.4042 
 104   0.0000       0.432213        11.7611 
 105   0.0000       0.447081        12.1657 
 106   0.0000       0.468011        12.7352 
 107   0.0000       0.484024        13.1710 
 108   0.0000       0.488605        13.2956 
 109   0.0000       0.501888        13.6571 
 110   0.0000       0.507846        13.8192 
 111   0.0000       0.514439        13.9986 
 112   0.0000       0.520779        14.1711 
 113   0.0000       0.525118        14.2892 
 114   0.0000       0.529640        14.4122 
 115   0.0000       0.530586        14.4380 
 116   0.0000       0.545810        14.8523 
 117   0.0000       0.559302        15.2194 
 118   0.0000       0.572352        15.5745 
 119   0.0000       0.572740        15.5851 
 120   0.0000       0.586278        15.9534 
 121   0.0000       0.592552        16.1242 
 122   0.0000       0.598942        16.2980 
 123   0.0000       0.613729        16.7004 
 124   0.0000       0.621372        16.9084 
 125   0.0000       0.626203        17.0399 
 126   0.0000       0.630737        17.1632 
 127   0.0000       0.649893        17.6845 
 128   0.0000       0.655044        17.8247 
 129   0.0000       0.658879        17.9290 
 130   0.0000       0.667747        18.1703 
 131   0.0000       0.677620        18.4390 
 132   0.0000       0.687095        18.6968 
 133   0.0000       0.696731        18.9590 
 134   0.0000       0.700696        19.0669 
 135   0.0000       0.707362        19.2483 
 136   0.0000       0.717203        19.5161 
 137   0.0000       0.724157        19.7053 
 138   0.0000       0.728841        19.8328 
 139   0.0000       0.730708        19.8836 
 140   0.0000       0.736914        20.0525 
 141   0.0000       0.745271        20.2799 
 142   0.0000       0.752526        20.4773 
 143   0.0000       0.754362        20.5272 
 144   0.0000       0.760365        20.6906 
 145   0.0000       0.765746        20.8370 
 146   0.0000       0.770579        20.9685 
 147   0.0000       0.774895        21.0860 
 148   0.0000       0.776493        21.1295 
 149   0.0000       0.778809        21.1925 
 150   0.0000       0.784621        21.3506 
 151   0.0000       0.786710        21.4075 
 152   0.0000       0.788164        21.4470 
 153   0.0000       0.793672        21.5969 
 154   0.0000       0.797780        21.7087 
 155   0.0000       0.804489        21.8913 
 156   0.0000       0.810187        22.0463 
 157   0.0000       0.816055        22.2060 
 158   0.0000       0.817994        22.2587 
 159   0.0000       0.822486        22.3810 
 160   0.0000       0.829660        22.5762 
 161   0.0000       0.831137        22.6164 
 162   0.0000       0.835194        22.7268 
 163   0.0000       0.841847        22.9078 
 164   0.0000       0.852389        23.1947 
 165   0.0000       0.866292        23.5730 
 166   0.0000       0.870638        23.6913 
 167   0.0000       0.875707        23.8292 
 168   0.0000       0.887256        24.1435 
 169   0.0000       0.895793        24.3758 
 170   0.0000       0.906719        24.6731 
 171   0.0000       0.914640        24.8886 
 172   0.0000       0.920814        25.0566 
 173   0.0000       0.941691        25.6247 
 174   0.0000       0.952814        25.9274 
 175   0.0000       0.967268        26.3207 
 176   0.0000       0.976577        26.5740 
 177   0.0000       0.992105        26.9965 
 178   0.0000       1.006315        27.3832 
 179   0.0000       1.020508        27.7694 
 180   0.0000       1.053812        28.6757 
 181   0.0000       1.061484        28.8845 
 182   0.0000       1.071400        29.1543 
 183   0.0000       1.088107        29.6089 
 184   0.0000       1.102976        30.0135 
 185   0.0000       1.116387        30.3784 
 186   0.0000       1.151550        31.3353 
 187   0.0000       1.156833        31.4790 
 188   0.0000       1.175089        31.9758 
 189   0.0000       1.181257        32.1436 
 190   0.0000       1.208295        32.8794 
 191   0.0000       1.242215        33.8024 
 192   0.0000       1.253483        34.1090 
 193   0.0000       1.282219        34.8910 
 194   0.0000       1.284390        34.9500 
 195   0.0000       1.308377        35.6027 
 196   0.0000       1.323017        36.0011 
 197   0.0000       1.340451        36.4755 
 198   0.0000       1.347994        36.6808 
 199   0.0000       1.359614        36.9970 
 200   0.0000       1.396586        38.0030 
 201   0.0000       1.410075        38.3701 
 202   0.0000       1.424737        38.7691 
 203   0.0000       1.429029        38.8859 
 204   0.0000       1.440632        39.2016 
 205   0.0000       1.476604        40.1804 
 206   0.0000       1.507191        41.0127 
 207   0.0000       1.508890        41.0590 
 208   0.0000       1.530657        41.6513 
 209   0.0000       1.554401        42.2974 
 210   0.0000       1.590346        43.2755 
 211   0.0000       1.600561        43.5535 
 212   0.0000       1.623929        44.1894 
 213   0.0000       1.631124        44.3851 
 214   0.0000       1.635092        44.4931 
 215   0.0000       1.645093        44.7653 
 216   0.0000       1.658481        45.1296 
 217   0.0000       1.699439        46.2441 
 218   0.0000       1.755973        47.7824 
 219   0.0000       1.776791        48.3490 
 220   0.0000       1.787438        48.6387 
 221   0.0000       1.791227        48.7418 
 222   0.0000       1.800187        48.9856 
 223   0.0000       1.804598        49.1056 
 224   0.0000       1.816106        49.4187 
 225   0.0000       1.823672        49.6247 
 226   0.0000       1.831725        49.8438 
 227   0.0000       1.840575        50.0846 
 228   0.0000       1.847143        50.2633 
 229   0.0000       1.853219        50.4287 
 230   0.0000       1.863495        50.7083 
 231   0.0000       1.869025        50.8588 
 232   0.0000       1.872291        50.9476 
 233   0.0000       1.879430        51.1419 
 234   0.0000       1.888646        51.3927 
 235   0.0000       1.897219        51.6260 
 236   0.0000       1.902091        51.7585 
 237   0.0000       1.912835        52.0509 
 238   0.0000       1.920130        52.2494 
 239   0.0000       1.931876        52.5690 
 240   0.0000       1.936633        52.6985 
 241   0.0000       1.948425        53.0193 
 242   0.0000       1.953367        53.1538 
 243   0.0000       1.964309        53.4516 
 244   0.0000       1.971722        53.6533 
 245   0.0000       1.987726        54.0888 
 246   0.0000       1.991536        54.1925 
 247   0.0000       2.004069        54.5335 
 248   0.0000       2.007982        54.6400 
 249   0.0000       2.038931        55.4821 
 250   0.0000       2.048976        55.7555 
 251   0.0000       2.057644        55.9913 
 252   0.0000       2.064992        56.1913 
 253   0.0000       2.074748        56.4568 
 254   0.0000       2.088886        56.8415 
 255   0.0000       2.095158        57.0121 
 256   0.0000       2.127051        57.8800 
 257   0.0000       2.137006        58.1509 
 258   0.0000       2.143716        58.3335 
 259   0.0000       2.157109        58.6979 
 260   0.0000       2.160334        58.7857 
 261   0.0000       2.193071        59.6765 
 262   0.0000       2.195599        59.7453 
 263   0.0000       2.212729        60.2114 
 264   0.0000       2.222523        60.4779 
 265   0.0000       2.234816        60.8124 
 266   0.0000       2.263954        61.6053 
 267   0.0000       2.282608        62.1129 
 268   0.0000       2.289553        62.3019 
 269   0.0000       2.307647        62.7943 
 270   0.0000       2.322798        63.2065 
 271   0.0000       2.366914        64.4070 
 272   0.0000       2.374907        64.6245 
 273   0.0000       2.393918        65.1418 
 274   0.0000       2.399471        65.2929 
 275   0.0000       2.413910        65.6858 
 276   0.0000       2.418698        65.8161 
 277   0.0000       2.430992        66.1507 
 278   0.0000       2.468009        67.1579 
 279   0.0000       2.477909        67.4273 
 280   0.0000       2.483487        67.5791 
 281   0.0000       2.488370        67.7120 
 282   0.0000       2.508626        68.2632 
 283   0.0000       2.519996        68.5726 
 284   0.0000       2.528090        68.7928 
 285   0.0000       2.549455        69.3742 
 286   0.0000       2.558512        69.6206 
 287   0.0000       2.584105        70.3171 
 288   0.0000       2.587641        70.4133 
 289   0.0000       2.607559        70.9553 
 290   0.0000       2.614914        71.1554 
 291   0.0000       2.656596        72.2897 
 292   0.0000       2.670357        72.6641 
 293   0.0000       2.692611        73.2697 
 294   0.0000       2.716836        73.9289 
 295   0.0000       2.728471        74.2455 
 296   0.0000       2.732588        74.3575 
 297   0.0000       2.738615        74.5215 
 298   0.0000       2.785044        75.7849 
 299   0.0000       2.805387        76.3385 
 300   0.0000       2.834104        77.1199 
 301   0.0000       2.881058        78.3976 
 302   0.0000       2.891115        78.6712 
 303   0.0000       2.907020        79.1040 
 304   0.0000       2.950163        80.2780 
 305   0.0000       2.966352        80.7185 
 306   0.0000       2.979220        81.0687 
 307   0.0000       2.994300        81.4791 
 308   0.0000       3.020376        82.1886 
 309   0.0000       3.048627        82.9574 
 310   0.0000       3.050986        83.0215 
 311   0.0000       3.075195        83.6803 
 312   0.0000       3.084470        83.9327 
 313   0.0000       3.100364        84.3652 
 314   0.0000       3.135994        85.3347 
 315   0.0000       3.141681        85.4895 
 316   0.0000       3.168435        86.2175 
 317   0.0000       3.184738        86.6611 
 318   0.0000       3.203761        87.1788 
 319   0.0000       3.227029        87.8119 
 320   0.0000       3.378303        91.9283 
 321   0.0000       3.444409        93.7271 

                    ********************************
                    * MULLIKEN POPULATION ANALYSIS *
                    ********************************

-----------------------
MULLIKEN ATOMIC CHARGES
-----------------------
   0 S :    0.114282
   1 C :   -0.135065
   2 C :   -0.119916
   3 C :    0.062423
   4 C :   -0.165342
   5 H :   -0.018333
   6 C :    0.128427
   7 H :    0.026595
   8 H :    0.006081
   9 C :   -0.105877
  10 H :    0.038274
  11 H :    0.046601
  12 C :   -0.064525
  13 H :    0.034239
  14 H :    0.024816
  15 H :    0.038209
  16 S :    0.104364
  17 C :   -0.088592
  18 C :   -0.031486
  19 C :   -0.053132
  20 C :   -0.140384
  21 H :    0.034126
  22 C :    0.042677
  23 H :    0.035031
  24 H :    0.047933
  25 C :   -0.085127
  26 H :    0.017024
  27 H :    0.043874
  28 C :   -0.043576
  29 H :    0.030223
  30 H :    0.039746
  31 H :    0.030785
  32 H :    0.051890
  33 H :    0.053734
Sum of atomic charges:    0.0000000

--------------------------------
MULLIKEN REDUCED ORBITAL CHARGES
--------------------------------
  0 S s       :     5.839516  s :     5.839516
      pz      :     3.320470  p :     9.931094
      px      :     2.980465
      py      :     3.630158
      dz2     :     0.017685  d :     0.115108
      dxz     :     0.043784
      dyz     :     0.012328
      dx2y2   :     0.016083
      dxy     :     0.025229
  1 C s       :     3.187689  s :     3.187689
      pz      :     0.885636  p :     2.914775
      px      :     0.892720
      py      :     1.136419
      dz2     :     0.007777  d :     0.032601
      dxz     :     0.010970
      dyz     :     0.006608
      dx2y2   :     0.004401
      dxy     :     0.002845
  2 C s       :     3.089522  s :     3.089522
      pz      :     0.998988  p :     2.988209
      px      :     1.002258
      py      :     0.986962
      dz2     :     0.010104  d :     0.042185
      dxz     :     0.012571
      dyz     :     0.007071
      dx2y2   :     0.005759
      dxy     :     0.006680
  3 C s       :     3.178240  s :     3.178240
      pz      :     0.828884  p :     2.727199
      px      :     0.875618
      py      :     1.022696
      dz2     :     0.008243  d :     0.032138
      dxz     :     0.009969
      dyz     :     0.005007
      dx2y2   :     0.004395
      dxy     :     0.004523
  4 C s       :     3.086227  s :     3.086227
      pz      :     0.962407  p :     3.035409
      px      :     0.986475
      py      :     1.086526
      dz2     :     0.008137  d :     0.043707
      dxz     :     0.015507
      dyz     :     0.008232
      dx2y2   :     0.005312
      dxy     :     0.006519
  5 H s       :     0.991971  s :     0.991971
      pz      :     0.009843  p :     0.026363
      px      :     0.009656
      py      :     0.006864
  6 C s       :     2.920886  s :     2.920886
      pz      :     0.921562  p :     2.916546
      px      :     1.000855
      py      :     0.994129
      dz2     :     0.008603  d :     0.034141
      dxz     :     0.005106
      dyz     :     0.007708
      dx2y2   :     0.009999
      dxy     :     0.002725
  7 H s       :     0.948159  s :     0.948159
      pz      :     0.005941  p :     0.025246
      px      :     0.006233
      py      :     0.013072
  8 H s       :     0.969464  s :     0.969464
      pz      :     0.005201  p :     0.024455
      px      :     0.014541
      py      :     0.004713
  9 C s       :     3.094696  s :     3.094696
      pz      :     0.960885  p :     2.976664
      px      :     1.012092
      py      :     1.003688
      dz2     :     0.009232  d :     0.034517
      dxz     :     0.004607
      dyz     :     0.007619
      dx2y2   :     0.009138
      dxy     :     0.003920
 10 H s       :     0.939393  s :     0.939393
      pz      :     0.003974  p :     0.022333
      px      :     0.014224
      py      :     0.004136
 11 H s       :     0.932222  s :     0.932222
      pz      :     0.004248  p :     0.021177
      px      :     0.005591
      py      :     0.011338
 12 C s       :     3.030187  s :     3.030187
      pz      :     0.974564  p :     3.006082
      px      :     1.012236
      py      :     1.019281
      dz2     :     0.005723  d :     0.028256
      dxz     :     0.004809
      dyz     :     0.007615
      dx2y2   :     0.005724
      dxy     :     0.004386
 13 H s       :     0.944517  s :     0.944517
      pz      :     0.004771  p :     0.021244
      px      :     0.007413
      py      :     0.009060
 14 H s       :     0.950216  s :     0.950216
      pz      :     0.007643  p :     0.024968
      px      :     0.005979
      py      :     0.011347
 15 H s       :     0.937555  s :     0.937555
      pz      :     0.004408  p :     0.024236
      px      :     0.013820
      py      :     0.006008
 16 S s       :     5.852336  s :     5.852336
      pz      :     3.277474  p :     9.941069
      px      :     3.178352
      py      :     3.485243
      dz2     :     0.025435  d :     0.102231
      dxz     :     0.014059
      dyz     :     0.021368
      dx2y2   :     0.028553
      dxy     :     0.012816
 17 C s       :     3.152332  s :     3.152332
      pz      :     1.019775  p :     2.901299
      px      :     0.855300
      py      :     1.026224
      dz2     :     0.006397  d :     0.034961
      dxz     :     0.007500
      dyz     :     0.005166
      dx2y2   :     0.008941
      dxy     :     0.006957
 18 C s       :     3.176356  s :     3.176356
      pz      :     0.972391  p :     2.821343
      px      :     0.863276
      py      :     0.985676
      dz2     :     0.007923  d :     0.033787
      dxz     :     0.007895
      dyz     :     0.004890
      dx2y2   :     0.007074
      dxy     :     0.006006
 19 C s       :     3.086625  s :     3.086625
      pz      :     0.992478  p :     2.923219
      px      :     0.954119
      py      :     0.976622
      dz2     :     0.008218  d :     0.043289
      dxz     :     0.012078
      dyz     :     0.005909
      dx2y2   :     0.007161
      dxy     :     0.009923
 20 C s       :     3.041354  s :     3.041354
      pz      :     0.969138  p :     3.055730
      px      :     1.047936
      py      :     1.038656
      dz2     :     0.007854  d :     0.043300
      dxz     :     0.009483
      dyz     :     0.006996
      dx2y2   :     0.010200
      dxy     :     0.008767
 21 H s       :     0.942367  s :     0.942367
      pz      :     0.003852  p :     0.023506
      px      :     0.015068
      py      :     0.004586
 22 C s       :     2.977419  s :     2.977419
      pz      :     1.019668  p :     2.944709
      px      :     0.982355
      py      :     0.942686
      dz2     :     0.004617  d :     0.035196
      dxz     :     0.007625
      dyz     :     0.008503
      dx2y2   :     0.006159
      dxy     :     0.008292
 23 H s       :     0.942305  s :     0.942305
      pz      :     0.006357  p :     0.022664
      px      :     0.011528
      py      :     0.004780
 24 H s       :     0.928688  s :     0.928688
      pz      :     0.007407  p :     0.023379
      px      :     0.006366
      py      :     0.009607
 25 C s       :     3.055964  s :     3.055964
      pz      :     1.004580  p :     2.991657
      px      :     1.003486
      py      :     0.983591
      dz2     :     0.005318  d :     0.037505
      dxz     :     0.010123
      dyz     :     0.008281
      dx2y2   :     0.005617
      dxy     :     0.008167
 26 H s       :     0.959738  s :     0.959738
      pz      :     0.008272  p :     0.023238
      px      :     0.009157
      py      :     0.005808
 27 H s       :     0.935027  s :     0.935027
      pz      :     0.006520  p :     0.021099
      px      :     0.005911
      py      :     0.008667
 28 C s       :     3.013423  s :     3.013423
      pz      :     0.977454  p :     3.000998
      px      :     1.018200
      py      :     1.005345
      dz2     :     0.008748  d :     0.029155
      dxz     :     0.006663
      dyz     :     0.003907
      dx2y2   :     0.004635
      dxy     :     0.005201
 29 H s       :     0.947592  s :     0.947592
      pz      :     0.004558  p :     0.022185
      px      :     0.010939
      py      :     0.006688
 30 H s       :     0.937042  s :     0.937042
      pz      :     0.004906  p :     0.023212
      px      :     0.005152
      py      :     0.013153
 31 H s       :     0.944618  s :     0.944618
      pz      :     0.012578  p :     0.024597
      px      :     0.006864
      py      :     0.005154
 32 H s       :     0.924383  s :     0.924383
      pz      :     0.002646  p :     0.023727
      px      :     0.015372
      py      :     0.005710
 33 H s       :     0.922457  s :     0.922457
      pz      :     0.009367  p :     0.023809
      px      :     0.005428
      py      :     0.009015


                     *******************************
                     * LOEWDIN POPULATION ANALYSIS *
                     *******************************

----------------------
LOEWDIN ATOMIC CHARGES
----------------------
   0 S :    0.431597
   1 C :   -0.219654
   2 C :   -0.055427
   3 C :   -0.064816
   4 C :   -0.197014
   5 H :    0.013743
   6 C :   -0.020479
   7 H :    0.026362
   8 H :    0.026065
   9 C :   -0.036855
  10 H :    0.023861
  11 H :    0.031916
  12 C :   -0.069283
  13 H :    0.031477
  14 H :    0.019445
  15 H :    0.021797
  16 S :    0.386377
  17 C :   -0.165257
  18 C :   -0.069463
  19 C :   -0.053078
  20 C :   -0.209533
  21 H :    0.036313
  22 C :   -0.037021
  23 H :    0.034092
  24 H :    0.040219
  25 C :   -0.048947
  26 H :    0.021080
  27 H :    0.032872
  28 C :   -0.068819
  29 H :    0.031870
  30 H :    0.032514
  31 H :    0.019660
  32 H :    0.029485
  33 H :    0.024903

-------------------------------
LOEWDIN REDUCED ORBITAL CHARGES
-------------------------------
  0 S s       :     5.484590  s :     5.484590
      pz      :     3.360270  p :     9.940395
      px      :     2.993874
      py      :     3.586250
      dz2     :     0.020145  d :     0.143418
      dxz     :     0.057540
      dyz     :     0.012561
      dx2y2   :     0.021858
      dxy     :     0.031314
  1 C s       :     2.936775  s :     2.936775
      pz      :     1.022100  p :     3.204998
      px      :     1.050843
      py      :     1.132055
      dz2     :     0.021314  d :     0.077881
      dxz     :     0.029120
      dyz     :     0.013581
      dx2y2   :     0.009222
      dxy     :     0.004644
  2 C s       :     2.876758  s :     2.876758
      pz      :     1.048673  p :     3.076615
      px      :     1.052297
      py      :     0.975645
      dz2     :     0.027531  d :     0.102055
      dxz     :     0.034016
      dyz     :     0.012708
      dx2y2   :     0.013721
      dxy     :     0.014079
  3 C s       :     2.859675  s :     2.859675
      pz      :     1.037138  p :     3.118984
      px      :     1.045510
      py      :     1.036336
      dz2     :     0.026676  d :     0.086158
      dxz     :     0.028152
      dyz     :     0.010627
      dx2y2   :     0.011383
      dxy     :     0.009320
  4 C s       :     2.916951  s :     2.916951
      pz      :     1.081046  p :     3.176937
      px      :     1.022628
      py      :     1.073263
      dz2     :     0.022556  d :     0.103126
      dxz     :     0.039061
      dyz     :     0.016943
      dx2y2   :     0.011202
      dxy     :     0.013363
  5 H s       :     0.905122  s :     0.905122
      pz      :     0.030245  p :     0.081135
      px      :     0.029652
      py      :     0.021238
  6 C s       :     2.822287  s :     2.822287
      pz      :     1.000077  p :     3.112675
      px      :     1.063156
      py      :     1.049442
      dz2     :     0.021249  d :     0.085518
      dxz     :     0.013012
      dyz     :     0.020210
      dx2y2   :     0.024827
      dxy     :     0.006220
  7 H s       :     0.898342  s :     0.898342
      pz      :     0.019207  p :     0.075296
      px      :     0.017385
      py      :     0.038704
  8 H s       :     0.901334  s :     0.901334
      pz      :     0.016438  p :     0.072601
      px      :     0.041699
      py      :     0.014464
  9 C s       :     2.851359  s :     2.851359
      pz      :     1.012025  p :     3.103450
      px      :     1.055966
      py      :     1.035459
      dz2     :     0.022201  d :     0.082046
      dxz     :     0.010045
      dyz     :     0.017703
      dx2y2   :     0.022352
      dxy     :     0.009746
 10 H s       :     0.909342  s :     0.909342
      pz      :     0.013345  p :     0.066797
      px      :     0.040757
      py      :     0.012695
 11 H s       :     0.906000  s :     0.906000
      pz      :     0.013557  p :     0.062084
      px      :     0.015178
      py      :     0.033350
 12 C s       :     2.841056  s :     2.841056
      pz      :     1.026876  p :     3.157717
      px      :     1.063133
      py      :     1.067708
      dz2     :     0.016195  d :     0.070510
      dxz     :     0.010932
      dyz     :     0.017451
      dx2y2   :     0.014250
      dxy     :     0.011683
 13 H s       :     0.911496  s :     0.911496
      pz      :     0.013668  p :     0.057027
      px      :     0.019583
      py      :     0.023776
 14 H s       :     0.908365  s :     0.908365
      pz      :     0.023988  p :     0.072191
      px      :     0.016025
      py      :     0.032177
 15 H s       :     0.908555  s :     0.908555
      pz      :     0.015165  p :     0.069647
      px      :     0.038867
      py      :     0.015615
 16 S s       :     5.525158  s :     5.525158
      pz      :     3.288840  p :     9.962743
      px      :     3.198582
      py      :     3.475320
      dz2     :     0.031726  d :     0.125723
      dxz     :     0.016517
      dyz     :     0.027971
      dx2y2   :     0.035634
      dxy     :     0.013875
 17 C s       :     2.934630  s :     2.934630
      pz      :     1.082940  p :     3.149045
      px      :     0.991197
      py      :     1.074908
      dz2     :     0.013272  d :     0.081582
      dxz     :     0.018126
      dyz     :     0.012992
      dx2y2   :     0.020220
      dxy     :     0.016972
 18 C s       :     2.872550  s :     2.872550
      pz      :     1.036048  p :     3.109332
      px      :     1.044288
      py      :     1.028995
      dz2     :     0.018659  d :     0.087581
      dxz     :     0.022481
      dyz     :     0.013201
      dx2y2   :     0.017287
      dxy     :     0.015954
 19 C s       :     2.865706  s :     2.865706
      pz      :     1.020310  p :     3.080555
      px      :     1.053282
      py      :     1.006963
      dz2     :     0.019181  d :     0.106818
      dxz     :     0.031128
      dyz     :     0.013371
      dx2y2   :     0.018122
      dxy     :     0.025016
 20 C s       :     2.906948  s :     2.906948
      pz      :     1.038817  p :     3.197658
      px      :     1.082097
      py      :     1.076744
      dz2     :     0.018657  d :     0.104927
      dxz     :     0.024474
      dyz     :     0.015201
      dx2y2   :     0.025744
      dxy     :     0.020852
 21 H s       :     0.894578  s :     0.894578
      pz      :     0.012600  p :     0.069109
      px      :     0.042403
      py      :     0.014107
 22 C s       :     2.832899  s :     2.832899
      pz      :     1.047771  p :     3.115498
      px      :     1.044363
      py      :     1.023364
      dz2     :     0.011151  d :     0.088625
      dxz     :     0.019153
      dyz     :     0.022163
      dx2y2   :     0.013264
      dxy     :     0.022894
 23 H s       :     0.899338  s :     0.899338
      pz      :     0.019014  p :     0.066570
      px      :     0.033456
      py      :     0.014100
 24 H s       :     0.891412  s :     0.891412
      pz      :     0.021342  p :     0.068369
      px      :     0.018637
      py      :     0.028390
 25 C s       :     2.833981  s :     2.833981
      pz      :     1.045681  p :     3.123474
      px      :     1.050047
      py      :     1.027746
      dz2     :     0.012636  d :     0.091492
      dxz     :     0.025239
      dyz     :     0.020637
      dx2y2   :     0.010879
      dxy     :     0.022100
 26 H s       :     0.911262  s :     0.911262
      pz      :     0.024048  p :     0.067657
      px      :     0.026871
      py      :     0.016739
 27 H s       :     0.906203  s :     0.906203
      pz      :     0.018721  p :     0.060925
      px      :     0.016729
      py      :     0.025475
 28 C s       :     2.833812  s :     2.833812
      pz      :     1.045747  p :     3.160224
      px      :     1.060853
      py      :     1.053624
      dz2     :     0.022741  d :     0.074783
      dxz     :     0.017464
      dyz     :     0.009585
      dx2y2   :     0.011936
      dxy     :     0.013057
 29 H s       :     0.909185  s :     0.909185
      pz      :     0.011267  p :     0.058945
      px      :     0.029834
      py      :     0.017843
 30 H s       :     0.903678  s :     0.903678
      pz      :     0.013439  p :     0.063808
      px      :     0.014041
      py      :     0.036328
 31 H s       :     0.909050  s :     0.909050
      pz      :     0.036849  p :     0.071291
      px      :     0.019998
      py      :     0.014444
 32 H s       :     0.896100  s :     0.896100
      pz      :     0.010375  p :     0.074415
      px      :     0.045417
      py      :     0.018623
 33 H s       :     0.900493  s :     0.900493
      pz      :     0.028024  p :     0.074604
      px      :     0.019834
      py      :     0.026746


                      *****************************
                      * MAYER POPULATION ANALYSIS *
                      *****************************

  NA   - Mulliken gross atomic population
  ZA   - Total nuclear charge
  QA   - Mulliken gross atomic charge
  VA   - Mayer's total valence
  BVA  - Mayer's bonded valence
  FA   - Mayer's free valence

  ATOM       NA         ZA         QA         VA         BVA        FA
  0 S     15.8857    16.0000     0.1143     2.5332     2.5332     0.0000
  1 C      6.1351     6.0000    -0.1351     3.8353     3.8353     0.0000
  2 C      6.1199     6.0000    -0.1199     4.0224     4.0224    -0.0000
  3 C      5.9376     6.0000     0.0624     3.9136     3.9136     0.0000
  4 C      6.1653     6.0000    -0.1653     3.9094     3.9094     0.0000
  5 H      1.0183     1.0000    -0.0183     1.0092     1.0092     0.0000
  6 C      5.8716     6.0000     0.1284     3.9277     3.9277    -0.0000
  7 H      0.9734     1.0000     0.0266     0.9932     0.9932    -0.0000
  8 H      0.9939     1.0000     0.0061     0.9975     0.9975     0.0000
  9 C      6.1059     6.0000    -0.1059     4.0777     4.0777     0.0000
 10 H      0.9617     1.0000     0.0383     0.9775     0.9775     0.0000
 11 H      0.9534     1.0000     0.0466     0.9754     0.9754    -0.0000
 12 C      6.0645     6.0000    -0.0645     4.0003     4.0003    -0.0000
 13 H      0.9658     1.0000     0.0342     0.9856     0.9856     0.0000
 14 H      0.9752     1.0000     0.0248     0.9855     0.9855     0.0000
 15 H      0.9618     1.0000     0.0382     0.9897     0.9897     0.0000
 16 S     15.8956    16.0000     0.1044     2.4524     2.4524     0.0000
 17 C      6.0886     6.0000    -0.0886     3.8554     3.8554     0.0000
 18 C      6.0315     6.0000    -0.0315     3.9397     3.9397     0.0000
 19 C      6.0531     6.0000    -0.0531     4.0195     4.0195     0.0000
 20 C      6.1404     6.0000    -0.1404     3.8993     3.8993     0.0000
 21 H      0.9659     1.0000     0.0341     0.9952     0.9952     0.0000
 22 C      5.9573     6.0000     0.0427     3.9584     3.9584     0.0000
 23 H      0.9650     1.0000     0.0350     1.0011     1.0011     0.0000
 24 H      0.9521     1.0000     0.0479     0.9826     0.9826    -0.0000
 25 C      6.0851     6.0000    -0.0851     4.0764     4.0764     0.0000
 26 H      0.9830     1.0000     0.0170     0.9810     0.9810     0.0000
 27 H      0.9561     1.0000     0.0439     0.9779     0.9779     0.0000
 28 C      6.0436     6.0000    -0.0436     3.9947     3.9947    -0.0000
 29 H      0.9698     1.0000     0.0302     0.9840     0.9840    -0.0000
 30 H      0.9603     1.0000     0.0397     0.9858     0.9858    -0.0000
 31 H      0.9692     1.0000     0.0308     0.9937     0.9937     0.0000
 32 H      0.9481     1.0000     0.0519     1.0043     1.0043     0.0000
 33 H      0.9463     1.0000     0.0537     0.9950     0.9950     0.0000

  Mayer bond orders larger than 0.100000
B(  0-S ,  1-C ) :   1.1431 B(  0-S ,  4-C ) :   1.1935 B(  1-C ,  2-C ) :   1.5854 
B(  1-C ,  4-C ) :   0.1014 B(  1-C , 32-H ) :   0.9680 B(  2-C ,  3-C ) :   1.2784 
B(  2-C ,  6-C ) :   1.0077 B(  3-C ,  4-C ) :   1.5116 B(  3-C ,  5-H ) :   1.0016 
B(  4-C , 20-C ) :   1.0286 B(  6-C ,  7-H ) :   0.9405 B(  6-C ,  8-H ) :   0.9392 
B(  6-C ,  9-C ) :   1.0565 B(  9-C , 10-H ) :   0.9585 B(  9-C , 11-H ) :   0.9611 
B(  9-C , 12-C ) :   1.0765 B( 12-C , 13-H ) :   0.9782 B( 12-C , 14-H ) :   0.9754 
B( 12-C , 15-H ) :   0.9783 B( 16-S , 17-C ) :   1.1336 B( 16-S , 20-C ) :   1.1260 
B( 17-C , 18-C ) :   1.6548 B( 17-C , 33-H ) :   0.9647 B( 18-C , 19-C ) :   1.1953 
B( 18-C , 21-H ) :   0.9841 B( 19-C , 20-C ) :   1.6290 B( 19-C , 22-C ) :   1.0335 
B( 22-C , 23-H ) :   0.9224 B( 22-C , 24-H ) :   0.9415 B( 22-C , 25-C ) :   1.0629 
B( 25-C , 26-H ) :   0.9578 B( 25-C , 27-H ) :   0.9582 B( 25-C , 28-C ) :   1.0769 
B( 28-C , 29-H ) :   0.9765 B( 28-C , 30-H ) :   0.9746 B( 28-C , 31-H ) :   0.9771 


-------
TIMINGS
-------

Total SCF time: 0 days 0 hours 0 min 20 sec 

Total time                  ....      20.015 sec
Sum of individual times     ....      19.103 sec  ( 95.4%)

Fock matrix formation       ....      17.367 sec  ( 86.8%)
  XC integration            ....       1.600 sec  (  9.2% of F)
    Basis function eval.    ....       0.157 sec  (  9.8% of XC)
    Density eval.           ....       0.108 sec  (  6.8% of XC)
    XC-Functional eval.     ....       0.128 sec  (  8.0% of XC)
    XC-Potential eval.      ....       0.126 sec  (  7.9% of XC)
Diagonalization             ....       0.160 sec  (  0.8%)
Density matrix formation    ....       0.025 sec  (  0.1%)
Population analysis         ....       0.058 sec  (  0.3%)
Initial guess               ....       0.164 sec  (  0.8%)
Orbital Transformation      ....       0.000 sec  (  0.0%)
Orbital Orthonormalization  ....       0.000 sec  (  0.0%)
DIIS solution               ....       0.218 sec  (  1.1%)
SOSCF solution              ....       0.124 sec  (  0.6%)
Grid generation             ....       0.987 sec  (  4.9%)


-------------------------------------------------------------------------------
                          DFT DISPERSION CORRECTION                            
                                                                               
                              DFTD3 V3.1  Rev 1                                
                              USING zero damping                               
-------------------------------------------------------------------------------
The omegaB97X-D3 functional is recognized. Fit by Chai et al.
Active option DFTDOPT                   ...         3   

molecular C6(AA) [au] = 14221.301814 


            DFT-D V3
 parameters
 s6 scaling factor         :     1.0000 
 rs6 scaling factor        :     1.2810 
 s8 scaling factor         :     1.0000 
 rs8 scaling factor        :     1.0940 
 Damping factor alpha6     :    14.0000 
 Damping factor alpha8     :    16.0000 
 ad hoc parameters k1-k3   :    16.0000     1.3333    -4.0000 

 Edisp/kcal,au: -8.285489005624  -0.013203765782 
 E6   /kcal   :  -3.768293666 
 E8   /kcal   :  -4.517195340 
 % E8         :  54.519357113 

-------------------------   ----------------
Dispersion correction           -0.013203766
-------------------------   ----------------


-------------------------   --------------------
FINAL SINGLE POINT ENERGY     -1339.873696805984
-------------------------   --------------------


                            ***************************************
                            *     ORCA property calculations      *
                            ***************************************

                                    ---------------------
                                    Active property flags
                                    ---------------------
   (+) Dipole Moment


------------------------------------------------------------------------------
                       ORCA ELECTRIC PROPERTIES CALCULATION
------------------------------------------------------------------------------

Dipole Moment Calculation                       ... on
Quadrupole Moment Calculation                   ... off
Polarizability Calculation                      ... off
GBWName                                         ... config_8325.gbw
Electron density file                           ... config_8325.scfp
The origin for moment calculation is the CENTER OF MASS  = (-95.577225, -83.908966 -147.741121)

-------------
DIPOLE MOMENT
-------------
                                X             Y             Z
Electronic contribution:     -7.50734      -8.00136      27.24468
Nuclear contribution   :      7.82367       8.00591     -27.83751
                        -----------------------------------------
Total Dipole Moment    :      0.31633       0.00455      -0.59283
                        -----------------------------------------
Magnitude (a.u.)       :      0.67196
Magnitude (Debye)      :      1.70800



--------------------
Rotational spectrum 
--------------------
 
Rotational constants in cm-1:     0.016540     0.008215     0.006296 
Rotational constants in MHz :   495.856992   246.264832   188.757655 

 Dipole components along the rotational axes: 
x,y,z [a.u.] :    -0.131780    -0.603694    -0.264053 
x,y,z [Debye]:    -0.334958    -1.534467    -0.671169 

 

Timings for individual modules:

Sum of individual times         ...       21.182 sec (=   0.353 min)
GTO integral calculation        ...        0.799 sec (=   0.013 min)   3.8 %
SCF iterations                  ...       20.383 sec (=   0.340 min)  96.2 %
                             ****ORCA TERMINATED NORMALLY****
TOTAL RUN TIME: 0 days 0 hours 0 minutes 21 seconds 885 msec
