
                                 *****************
                                 * O   R   C   A *
                                 *****************

           --- An Ab Initio, DFT and Semiempirical electronic structure package ---

                  #######################################################
                  #                        -***-                        #
                  #          Department of theory and spectroscopy      #
                  #               Directorship: Frank Neese             #
                  #        Max Planck Institute fuer Kohlenforschung    #
                  #                Kaiser Wilhelm Platz 1               #
                  #                 D-45470 Muelheim/Ruhr               #
                  #                      Germany                        #
                  #                                                     #
                  #                  All rights reserved                #
                  #                        -***-                        #
                  #######################################################


                         Program Version 4.2.1 -  RELEASE  -


 With contributions from (in alphabetic order):
   Daniel Aravena         : Magnetic Suceptibility
   Michael Atanasov       : Ab Initio Ligand Field Theory (pilot matlab implementation)
   Alexander A. Auer      : GIAO ZORA, VPT2
   Ute Becker             : Parallelization
   Giovanni Bistoni       : ED, misc. LED, open-shell LED, HFLD
   Martin Brehm           : Molecular dynamics
   Dmytro Bykov           : SCF Hessian
   Vijay G. Chilkuri      : MRCI spin determinant printing, contributions to CSF-ICE
   Dipayan Datta          : RHF DLPNO-CCSD density
   Achintya Kumar Dutta   : EOM-CC, STEOM-CC
   Dmitry Ganyushin       : Spin-Orbit,Spin-Spin,Magnetic field MRCI
   Miquel Garcia          : C-PCM Hessian, Gaussian charge scheme
   Yang Guo               : DLPNO-NEVPT2, CIM, IAO-localization
   Andreas Hansen         : Spin unrestricted coupled pair/coupled cluster methods
   Benjamin Helmich-Paris : CASSCF linear response (MC-RPA)
   Lee Huntington         : MR-EOM, pCC
   Robert Izsak           : Overlap fitted RIJCOSX, COSX-SCS-MP3, EOM
   Christian Kollmar      : KDIIS, OOCD, Brueckner-CCSD(T), CCSD density
   Simone Kossmann        : Meta GGA functionals, TD-DFT gradient, OOMP2, MP2 Hessian
   Martin Krupicka        : AUTO-CI
   Lucas Lang             : DCDCAS
   Dagmar Lenk            : GEPOL surface, SMD
   Dimitrios Liakos       : Extrapolation schemes; Compound Job, initial MDCI parallelization
   Dimitrios Manganas     : Further ROCIS development; embedding schemes
   Dimitrios Pantazis     : SARC Basis sets
   Taras Petrenko         : DFT Hessian,TD-DFT gradient, ASA, ECA, R-Raman, ABS, FL, XAS/XES, NRVS
   Peter Pinski           : DLPNO-MP2, DLPNO-MP2 Gradient
   Christoph Reimann      : Effective Core Potentials
   Marius Retegan         : Local ZFS, SOC
   Christoph Riplinger    : Optimizer, TS searches, QM/MM, DLPNO-CCSD(T), (RO)-DLPNO pert. Triples
   Tobias Risthaus        : Range-separated hybrids, TD-DFT gradient, RPA, STAB
   Michael Roemelt        : Original ROCIS implementation
   Masaaki Saitow         : Open-shell DLPNO-CCSD energy and density
   Barbara Sandhoefer     : DKH picture change effects
   Avijit Sen             : IP-ROCIS
   Kantharuban Sivalingam : CASSCF convergence, NEVPT2, FIC-MRCI
   Bernardo de Souza      : ESD, SOC TD-DFT
   Georgi Stoychev        : AutoAux, RI-MP2 NMR
   Willem Van den Heuvel  : Paramagnetic NMR
   Boris Wezisla          : Elementary symmetry handling
   Frank Wennmohs         : Technical directorship


 We gratefully acknowledge several colleagues who have allowed us to
 interface, adapt or use parts of their codes:
   Stefan Grimme, W. Hujo, H. Kruse,             : VdW corrections, initial TS optimization,
                  C. Bannwarth                     DFT functionals, gCP, sTDA/sTD-DF
   Ed Valeev, F. Pavosevic, A. Kumar             : LibInt (2-el integral package), F12 methods
   Garnet Chan, S. Sharma, J. Yang, R. Olivares  : DMRG
   Ulf Ekstrom                                   : XCFun DFT Library
   Mihaly Kallay                                 : mrcc  (arbitrary order and MRCC methods)
   Andreas Klamt, Michael Diedenhofen            : otool_cosmo (COSMO solvation model)
   Jiri Pittner, Ondrej Demel                    : Mk-CCSD
   Frank Weinhold                                : gennbo (NPA and NBO analysis)
   Christopher J. Cramer and Donald G. Truhlar   : smd solvation model
   Lars Goerigk                                  : TD-DFT with DH, B97 family of functionals
   V. Asgeirsson, H. Jonsson                     : NEB implementation
   FAccTs GmbH                                   : IRC, NEB, NEB-TS, Multilevel, MM, QM/MM, CI optimization
   S Lehtola, MJT Oliveira, MAL Marques          : LibXC Library


 Your calculation uses the libint2 library for the computation of 2-el integrals
 For citations please refer to: http://libint.valeyev.net

 Your ORCA version has been built with support for libXC version: 4.2.3
 For citations please refer to: https://tddft.org/programs/libxc/

 This ORCA versions uses:
   CBLAS   interface :  Fast vector & matrix operations
   LAPACKE interface :  Fast linear algebra routines
   SCALAPACK package :  Parallel linear algebra routines


Your calculation utilizes the atom-pairwise dispersion correction
with the zero-damping scheme (D30)
Cite in your paper:
S.Grimme, J.Antony, S.Ehrlich and H.Krieg, J.Chem.Phys., 132, (2010), 154104 
   

XCFun DFT library Copyright 2009-2010 Ulf Ekstrom and contributors.
See http://admol.org/xcfun for more information. This is free soft-
ware; see the source code for copying conditions. There is ABSOLUTELY
NO WARRANTY; not even for MERCHANTABILITY or FITNESS FOR A PARTICULAR
PURPOSE. For details see the documentation. Scientific users of this 
library should cite U. Ekstrom, L. Visscher, R. Bast, A. J. Thorvald-
sen and K. Ruud; J.Chem.Theor.Comp. 2010, DOI: 10.1021/ct100117s
XCFun Version 0.99 
----- Orbital basis set information -----
Your calculation utilizes the basis: def2-SVP
   F. Weigend and R. Ahlrichs, Phys. Chem. Chem. Phys. 7, 3297 (2005).

================================================================================
                                        WARNINGS
                       Please study these warnings very carefully!
================================================================================


INFO   : the flag for use of LIBINT has been found!

================================================================================
                                       INPUT FILE
================================================================================
NAME = config_4067.inp
|  1> ! wB97X-D3 SP def2-SVP
|  2> %pal
|  3> nprocs 24
|  4> end
|  5> 
|  6> * xyz 0 1
|  7> S 	 -127.822 	 61.6948 	 -56.8171 	 
|  8> C 	 -127.269 	 60.1214 	 -57.2309 	 
|  9> C 	 -128.094 	 59.1458 	 -56.7638 	 
| 10> C 	 -129.138 	 59.7154 	 -55.9519 	 
| 11> C 	 -129.118 	 61.0679 	 -55.7968 	 
| 12> H 	 -129.947 	 59.1155 	 -55.4861 	 
| 13> C 	 -127.851 	 57.6684 	 -57.0909 	 
| 14> H 	 -127.734 	 57.0793 	 -56.098 	 
| 15> H 	 -126.936 	 57.6106 	 -57.69 	 
| 16> C 	 -129.047 	 57.135 	 -57.8831 	 
| 17> H 	 -129.806 	 56.8179 	 -57.187 	 
| 18> H 	 -129.438 	 57.8935 	 -58.5647 	 
| 19> C 	 -128.515 	 55.85 	 -58.6736 	 
| 20> H 	 -128.314 	 54.9589 	 -57.9902 	 
| 21> H 	 -129.218 	 55.635 	 -59.4108 	 
| 22> H 	 -127.615 	 56.1726 	 -59.1401 	 
| 23> S 	 -131.166 	 62.8681 	 -55.4786 	 
| 24> C 	 -131.672 	 63.3377 	 -53.8914 	 
| 25> C 	 -130.978 	 62.6731 	 -52.9516 	 
| 26> C 	 -129.925 	 61.8421 	 -53.4838 	 
| 27> C 	 -129.928 	 61.8344 	 -54.8663 	 
| 28> H 	 -131.251 	 62.8339 	 -51.924 	 
| 29> C 	 -128.949 	 61.0652 	 -52.6044 	 
| 30> H 	 -128.527 	 61.6486 	 -51.7457 	 
| 31> H 	 -128.063 	 60.9858 	 -53.2491 	 
| 32> C 	 -129.471 	 59.7045 	 -52.0893 	 
| 33> H 	 -129.403 	 59.0497 	 -53.0071 	 
| 34> H 	 -130.455 	 59.7203 	 -51.7381 	 
| 35> C 	 -128.622 	 59.2397 	 -50.9097 	 
| 36> H 	 -127.583 	 59.1836 	 -51.1647 	 
| 37> H 	 -129.033 	 58.2547 	 -50.6581 	 
| 38> H 	 -128.722 	 59.8551 	 -50.0061 	 
| 39> H 	 -126.415 	 59.8221 	 -57.9225 	 
| 40> H 	 -132.549 	 63.8278 	 -53.5711 	 
| 41> *
| 42> 
| 43>                          ****END OF INPUT****
================================================================================

                       ****************************
                       * Single Point Calculation *
                       ****************************

---------------------------------
CARTESIAN COORDINATES (ANGSTROEM)
---------------------------------
  S    -127.822000   61.694800  -56.817100
  C    -127.269000   60.121400  -57.230900
  C    -128.094000   59.145800  -56.763800
  C    -129.138000   59.715400  -55.951900
  C    -129.118000   61.067900  -55.796800
  H    -129.947000   59.115500  -55.486100
  C    -127.851000   57.668400  -57.090900
  H    -127.734000   57.079300  -56.098000
  H    -126.936000   57.610600  -57.690000
  C    -129.047000   57.135000  -57.883100
  H    -129.806000   56.817900  -57.187000
  H    -129.438000   57.893500  -58.564700
  C    -128.515000   55.850000  -58.673600
  H    -128.314000   54.958900  -57.990200
  H    -129.218000   55.635000  -59.410800
  H    -127.615000   56.172600  -59.140100
  S    -131.166000   62.868100  -55.478600
  C    -131.672000   63.337700  -53.891400
  C    -130.978000   62.673100  -52.951600
  C    -129.925000   61.842100  -53.483800
  C    -129.928000   61.834400  -54.866300
  H    -131.251000   62.833900  -51.924000
  C    -128.949000   61.065200  -52.604400
  H    -128.527000   61.648600  -51.745700
  H    -128.063000   60.985800  -53.249100
  C    -129.471000   59.704500  -52.089300
  H    -129.403000   59.049700  -53.007100
  H    -130.455000   59.720300  -51.738100
  C    -128.622000   59.239700  -50.909700
  H    -127.583000   59.183600  -51.164700
  H    -129.033000   58.254700  -50.658100
  H    -128.722000   59.855100  -50.006100
  H    -126.415000   59.822100  -57.922500
  H    -132.549000   63.827800  -53.571100

----------------------------
CARTESIAN COORDINATES (A.U.)
----------------------------
  NO LB      ZA    FRAG     MASS         X           Y           Z
   0 S    16.0000    0    32.060  -241.548574  116.586276  -107.368759
   1 C     6.0000    0    12.011  -240.503555  113.612981  -108.150727
   2 C     6.0000    0    12.011  -242.062579  111.769364  -107.268036
   3 C     6.0000    0    12.011  -244.035453  112.845752  -105.733768
   4 C     6.0000    0    12.011  -243.997659  115.401607  -105.440671
   5 H     1.0000    0     1.008  -245.564242  111.712105  -104.853533
   6 C     6.0000    0    12.011  -241.603376  108.977483  -107.886166
   7 H     1.0000    0     1.008  -241.382278  107.864245  -106.009857
   8 H     1.0000    0     1.008  -239.874277  108.868256  -109.018301
   9 C     6.0000    0    12.011  -243.863488  107.969503  -109.383207
  10 H     1.0000    0     1.008  -245.297791  107.370271  -108.067768
  11 H     1.0000    0     1.008  -244.602371  109.402860  -110.671244
  12 C     6.0000    0    12.011  -242.858154  105.541205  -110.877035
  13 H     1.0000    0     1.008  -242.478319  103.857270  -109.585596
  14 H     1.0000    0     1.008  -244.186632  105.134913  -112.270141
  15 H     1.0000    0     1.008  -241.157401  106.150830  -111.758593
  16 S    16.0000    0    32.060  -247.867818  118.803492  -104.839360
  17 C     6.0000    0    12.011  -248.824020  119.690907  -101.839987
  18 C     6.0000    0    12.011  -247.512550  118.434995  -100.064022
  19 C     6.0000    0    12.011  -245.522668  116.864633  -101.069735
  20 C     6.0000    0    12.011  -245.528337  116.850082  -103.682281
  21 H     1.0000    0     1.008  -248.028445  118.738863  -98.122140
  22 C     6.0000    0    12.011  -243.678295  115.396504  -99.407909
  23 H     1.0000    0     1.008  -242.880831  116.498971  -97.785202
  24 H     1.0000    0     1.008  -242.003998  115.246460  -100.626216
  25 C     6.0000    0    12.011  -244.664732  112.825154  -98.434512
  26 H     1.0000    0     1.008  -244.536231  111.587761  -100.168902
  27 H     1.0000    0     1.008  -246.524223  112.855012  -97.770840
  28 C     6.0000    0    12.011  -243.060355  111.946809  -96.205391
  29 H     1.0000    0     1.008  -241.096929  111.840796  -96.687271
  30 H     1.0000    0     1.008  -243.837032  110.085429  -95.729935
  31 H     1.0000    0     1.008  -243.249327  113.109747  -94.497834
  32 H     1.0000    0     1.008  -238.889729  113.047386  -109.457662
  33 H     1.0000    0     1.008  -250.481309  120.617062  -101.234708

--------------------------------
INTERNAL COORDINATES (ANGSTROEM)
--------------------------------
 S      0   0   0     0.000000000000     0.00000000     0.00000000
 C      1   0   0     1.718320982820     0.00000000     0.00000000
 C      2   1   0     1.360368615486   112.26027599     0.00000000
 C      3   2   1     1.439986725633   110.46287730   354.97077708
 C      4   3   2     1.361511020888   116.52067547   359.85539918
 H      4   3   2     1.109653391830   123.46317874   178.19736843
 C      3   2   1     1.532564572865   121.45989520   175.91148096
 H      7   3   2     1.160421569948   108.82946398   122.03705366
 H      7   3   2     1.095210778800   107.46332711     1.85744734
 C      7   3   2     1.530526837399   108.81623895   242.10280599
 H     10   7   3     1.077584623127   108.57815539   274.38727615
 H     10   7   3     1.092145507705   111.14630248    36.52578585
 C     10   7   3     1.599730993011   106.01222093   157.99848715
 H     13  10   7     1.140831175065   112.95480061    71.34575892
 H     13  10   7     1.041104144646   106.93146293   195.56778952
 H     13  10   7     1.063810608144   104.74104946   311.01212181
 S      5   4   3     2.745227728259   130.81824186   147.91750144
 C     17   5   4     1.730827547735   120.15259875    93.62307720
 C     18  17   5     1.344080801143   110.86006685   357.53585685
 C     19  18  17     1.443123986357   113.80504352     5.18555212
 C     20  19  18     1.382524697790   111.74031791   355.36734898
 H     19  18  17     1.075335947507   117.59057307   183.99093278
 C     20  19  18     1.526267987609   123.17686718   175.95466402
 H     23  20  19     1.120627168152   114.66530536   314.80000741
 H     23  20  19     1.098607504981   102.37939518   206.88336430
 C     23  20  19     1.545741407869   115.09616134    82.83791160
 H     26  23  20     1.129488326633   102.66309169    75.07446020
 H     26  23  20     1.044914867346   114.62686728   316.07964568
 C     26  23  20     1.525875551937   109.74674532   197.48192432
 H     29  26  23     1.071304443191   111.81214558   303.81432344
 H     29  26  23     1.096562155101   104.03135619   183.01669518
 H     29  26  23     1.097820622871   114.51053923    67.43777465
 H      2   1   3     1.138949976952   128.91466235   171.79532318
 H     18  17   5     1.054475746521   130.37524317   195.40715294

---------------------------
INTERNAL COORDINATES (A.U.)
---------------------------
 S      0   0   0     0.000000000000     0.00000000     0.00000000
 C      1   0   0     3.247156067700     0.00000000     0.00000000
 C      2   1   0     2.570724124451   112.26027599     0.00000000
 C      3   2   1     2.721180547929   110.46287730   354.97077708
 C      4   3   2     2.572882957794   116.52067547   359.85539918
 H      4   3   2     2.096941014136   123.46317874   178.19736843
 C      3   2   1     2.896127325264   121.45989520   175.91148096
 H      7   3   2     2.192878967096   108.82946398   122.03705366
 H      7   3   2     2.069648430851   107.46332711     1.85744734
 C      7   3   2     2.892276563302   108.81623895   242.10280599
 H     10   7   3     2.036339823835   108.57815539   274.38727615
 H     10   7   3     2.063855907955   111.14630248    36.52578585
 C     10   7   3     3.023053464737   106.01222093   157.99848715
 H     13  10   7     2.155858485912   112.95480061    71.34575892
 H     13  10   7     1.967401710272   106.93146293   195.56778952
 H     13  10   7     2.010310707753   104.74104946   311.01212181
 S      5   4   3     5.187728581656   130.81824186   147.91750144
 C     17   5   4     3.270790050267   120.15259875    93.62307720
 C     18  17   5     2.539944616021   110.86006685   357.53585685
 C     19  18  17     2.727109111508   113.80504352     5.18555212
 C     20  19  18     2.612593052206   111.74031791   355.36734898
 H     19  18  17     2.032090442748   117.59057307   183.99093278
 C     20  19  18     2.884228503552   123.17686718   175.95466402
 H     23  20  19     2.117678446039   114.66530536   314.80000741
 H     23  20  19     2.076067313084   102.37939518   206.88336430
 C     23  20  19     2.921027934734   115.09616134    82.83791160
 H     26  23  20     2.134423608797   102.66309169    75.07446020
 H     26  23  20     1.974602932546   114.62686728   316.07964568
 C     26  23  20     2.883486907607   109.74674532   197.48192432
 H     29  26  23     2.024472003683   111.81214558   303.81432344
 H     29  26  23     2.072202161964   104.03135619   183.01669518
 H     29  26  23     2.074580321396   114.51053923    67.43777465
 H      2   1   3     2.152303536676   128.91466235   171.79532318
 H     18  17   5     1.992670375786   130.37524317   195.40715294

---------------------
BASIS SET INFORMATION
---------------------
There are 3 groups of distinct atoms

 Group   1 Type S   : 10s7p1d contracted to 4s3p1d pattern {5311/511/1}
 Group   2 Type C   : 7s4p1d contracted to 3s2p1d pattern {511/31/1}
 Group   3 Type H   : 4s1p contracted to 2s1p pattern {31/1}

Atom   0S    basis set group =>   1
Atom   1C    basis set group =>   2
Atom   2C    basis set group =>   2
Atom   3C    basis set group =>   2
Atom   4C    basis set group =>   2
Atom   5H    basis set group =>   3
Atom   6C    basis set group =>   2
Atom   7H    basis set group =>   3
Atom   8H    basis set group =>   3
Atom   9C    basis set group =>   2
Atom  10H    basis set group =>   3
Atom  11H    basis set group =>   3
Atom  12C    basis set group =>   2
Atom  13H    basis set group =>   3
Atom  14H    basis set group =>   3
Atom  15H    basis set group =>   3
Atom  16S    basis set group =>   1
Atom  17C    basis set group =>   2
Atom  18C    basis set group =>   2
Atom  19C    basis set group =>   2
Atom  20C    basis set group =>   2
Atom  21H    basis set group =>   3
Atom  22C    basis set group =>   2
Atom  23H    basis set group =>   3
Atom  24H    basis set group =>   3
Atom  25C    basis set group =>   2
Atom  26H    basis set group =>   3
Atom  27H    basis set group =>   3
Atom  28C    basis set group =>   2
Atom  29H    basis set group =>   3
Atom  30H    basis set group =>   3
Atom  31H    basis set group =>   3
Atom  32H    basis set group =>   3
Atom  33H    basis set group =>   3


           ************************************************************
           *        Program running with 24 parallel MPI-processes    *
           *              working on a common directory               *
           ************************************************************
------------------------------------------------------------------------------
                           ORCA GTO INTEGRAL CALCULATION
------------------------------------------------------------------------------

                         BASIS SET STATISTICS AND STARTUP INFO

 # of primitive gaussian shells          ...  294
 # of primitive gaussian functions       ...  534
 # of contracted shells                  ...  154
 # of contracted basis functions         ...  322
 Highest angular momentum                ...    2
 Maximum contraction depth               ...    5
 Integral package used                   ... LIBINT
 Integral threshhold            Thresh   ...  1.000e-10
 Primitive cut-off              TCut     ...  1.000e-11


------------------------------ INTEGRAL EVALUATION ----------------------------


 * One electron integrals 
 Pre-screening matrix                    ... done
 Shell pair data                         ... done (   0.003 sec)



           ************************************************************
           *        Program running with 24 parallel MPI-processes    *
           *              working on a common directory               *
           ************************************************************
-------------------------------------------------------------------------------
                                 ORCA SCF
-------------------------------------------------------------------------------

------------
SCF SETTINGS
------------
Hamiltonian:
 Density Functional     Method          .... DFT(GTOs)
 Exchange Functional    Exchange        .... WB97X-D3
 Correlation Functional Correlation     .... WB97X-D3
 Gradients option       PostSCFGGA      .... off
 Hybrid DFT is turned on
   Fraction HF Exchange ScalHFX         ....  0.195728
   Scaling of DF-GGA-X  ScalDFX         ....  0.000000
   Scaling of DF-GGA-C  ScalDFC         ....  1.000000
   Scaling of DF-LDA-C  ScalLDAC        ....  1.000000
   Perturbative correction              ....  0.000000
   Density functional embedding theory  .... OFF
 Long-range corrected/Screened/Range-Separated Hybrid DFT is turned on
   Amount of maximum screened exact exchange              ....  0.804272
   Range separation parameter mu (erf(mu*r12)/r12)        ....  0.250000


General Settings:
 Integral files         IntName         .... config_4067
 Hartree-Fock type      HFTyp           .... RHF
 Total Charge           Charge          ....    0
 Multiplicity           Mult            ....    1
 Number of Electrons    NEL             ....  134
 Basis Dimension        Dim             ....  322
 Nuclear Repulsion      ENuc            ....   1277.7741357496 Eh

Convergence Acceleration:
 DIIS                   CNVDIIS         .... on
   Start iteration      DIISMaxIt       ....    12
   Startup error        DIISStart       ....  0.200000
   # of expansion vecs  DIISMaxEq       ....     5
   Bias factor          DIISBfac        ....   1.050
   Max. coefficient     DIISMaxC        ....  10.000
 Newton-Raphson         CNVNR           .... off
 SOSCF                  CNVSOSCF        .... on
   Start iteration      SOSCFMaxIt      ....   150
   Startup grad/error   SOSCFStart      ....  0.003300
 Level Shifting         CNVShift        .... on
   Level shift para.    LevelShift      ....    0.2500
   Turn off err/grad.   ShiftErr        ....    0.0010
 Zerner damping         CNVZerner       .... off
 Static damping         CNVDamp         .... on
   Fraction old density DampFac         ....    0.7000
   Max. Damping (<1)    DampMax         ....    0.9800
   Min. Damping (>=0)   DampMin         ....    0.0000
   Turn off err/grad.   DampErr         ....    0.1000
 Fernandez-Rico         CNVRico         .... off

SCF Procedure:
 Maximum # iterations   MaxIter         ....   125
 SCF integral mode      SCFMode         .... Direct
   Integral package                     .... LIBINT
 Reset frequency        DirectResetFreq ....    20
 Integral Threshold     Thresh          ....  1.000e-10 Eh
 Primitive CutOff       TCut            ....  1.000e-11 Eh

Convergence Tolerance:
 Convergence Check Mode ConvCheckMode   .... Total+1el-Energy
 Convergence forced     ConvForced      .... 0
 Energy Change          TolE            ....  1.000e-06 Eh
 1-El. energy change                    ....  1.000e-03 Eh
 Orbital Gradient       TolG            ....  5.000e-05
 Orbital Rotation angle TolX            ....  5.000e-05
 DIIS Error             TolErr          ....  1.000e-06


Diagonalization of the overlap matrix:
Smallest eigenvalue                        ... 6.368e-04
Time for diagonalization                   ...    0.015 sec
Threshold for overlap eigenvalues          ... 1.000e-08
Number of eigenvalues below threshold      ... 0
Time for construction of square roots      ...    0.027 sec
Total time needed                          ...    0.042 sec

-------------------
DFT GRID GENERATION
-------------------

General Integration Accuracy     IntAcc      ...  4.340
Radial Grid Type                 RadialGrid  ... Gauss-Chebyshev
Angular Grid (max. acc.)         AngularGrid ... Lebedev-110
Angular grid pruning method      GridPruning ... 3 (G Style)
Weight generation scheme         WeightScheme... Becke
Basis function cutoff            BFCut       ...    1.0000e-10
Integration weight cutoff        WCut        ...    1.0000e-14
Grids for H and He will be reduced by one unit

# of grid points (after initial pruning)     ...  41088 (   0.0 sec)
# of grid points (after weights+screening)   ...  37074 (   0.0 sec)
nearest neighbour list constructed           ...    0.0 sec
Grid point re-assignment to atoms done       ...    0.0 sec
Grid point division into batches done        ...    0.0 sec
Reduced shell lists constructed in    0.1 sec

Total number of grid points                  ...    37074
Total number of batches                      ...      597
Average number of points per batch           ...       62
Average number of grid points per atom       ...     1090
Average number of shells per batch           ...    69.27 (44.98%)
Average number of basis functions per batch  ...   135.58 (42.10%)
Average number of large shells per batch     ...    43.19 (62.35%)
Average number of large basis fcns per batch ...    89.19 (65.79%)
Maximum spatial batch extension              ...  16.50, 17.44, 15.43 au
Average spatial batch extension              ...   0.18,  0.18,  0.18 au

Time for grid setup =    0.151 sec

------------------------------
INITIAL GUESS: MODEL POTENTIAL
------------------------------
Loading Hartree-Fock densities                     ... done
Calculating cut-offs                               ... done
Setting up the integral package                    ... done
Initializing the effective Hamiltonian             ... done
Starting the Coulomb interaction                   ... done (   0.0 sec)
Reading the grid                                   ... done
Mapping shells                                     ... done
Starting the XC term evaluation                    ... done (   0.0 sec)
  promolecular density results
     # of electrons  =    133.997163769
     EX              =   -126.729905410
     EC              =     -4.619853960
     EX+EC           =   -131.349759370
Transforming the Hamiltonian                       ... done (   0.0 sec)
Diagonalizing the Hamiltonian                      ... done (   0.0 sec)
Back transforming the eigenvectors                 ... done (   0.0 sec)
Now organizing SCF variables                       ... done
                      ------------------
                      INITIAL GUESS DONE (   0.3 sec)
                      ------------------
--------------
SCF ITERATIONS
--------------
ITER       Energy         Delta-E        Max-DP      RMS-DP      [F,P]     Damp
               ***  Starting incremental Fock matrix formation  ***
  0  -1339.4263498946   0.000000000000 0.06573127  0.00157249  0.1545165 0.7000
  1  -1339.6110295712  -0.184679676576 0.04416239  0.00114983  0.0934025 0.7000
                               ***Turning on DIIS***
  2  -1339.7014667963  -0.090437225139 0.07685658  0.00217397  0.0483508 0.0000
  3  -1339.8386978554  -0.137231059065 0.04214278  0.00097853  0.0381567 0.0000
  4  -1339.8671937944  -0.028495939032 0.00769253  0.00020214  0.0075632 0.0000
                      *** Initiating the SOSCF procedure ***
                           *** Shutting down DIIS ***
                      *** Re-Reading the Fockian *** 
                      *** Removing any level shift *** 
ITER      Energy       Delta-E        Grad      Rot      Max-DP    RMS-DP
  5  -1339.86809768  -0.0009038834  0.001279  0.001279  0.003091  0.000100
               *** Restarting incremental Fock matrix formation ***
  6  -1339.86827637  -0.0001786943  0.001058  0.002832  0.002668  0.000062
  7  -1339.86833217  -0.0000557983  0.000683  0.003858  0.002580  0.000059
  8  -1339.86834648  -0.0000143092  0.000338  0.000590  0.000691  0.000020
  9  -1339.86835080  -0.0000043246  0.000135  0.000284  0.000343  0.000008
 10  -1339.86835126  -0.0000004580  0.000049  0.000178  0.000128  0.000003
                 **** Energy Check signals convergence ****
              ***Rediagonalizing the Fockian in SOSCF/NRSCF***

               *****************************************************
               *                     SUCCESS                       *
               *           SCF CONVERGED AFTER  11 CYCLES          *
               *****************************************************

Setting up the final grid:

General Integration Accuracy     IntAcc      ...  4.670
Radial Grid Type                 RadialGrid  ... Gauss-Chebyshev
Angular Grid (max. acc.)         AngularGrid ... Lebedev-302
Angular grid pruning method      GridPruning ... 3 (G Style)
Weight generation scheme         WeightScheme... Becke
Basis function cutoff            BFCut       ...    1.0000e-10
Integration weight cutoff        WCut        ...    1.0000e-14
Grids for H and He will be reduced by one unit

# of grid points (after initial pruning)     ... 161752 (   0.0 sec)
# of grid points (after weights+screening)   ... 142947 (   0.1 sec)
nearest neighbour list constructed           ...    0.0 sec
Grid point re-assignment to atoms done       ...    0.0 sec
Grid point division into batches done        ...    0.5 sec
Reduced shell lists constructed in    0.5 sec

Total number of grid points                  ...   142947
Total number of batches                      ...     2249
Average number of points per batch           ...       63
Average number of grid points per atom       ...     4204
Average number of shells per batch           ...    63.15 (41.00%)
Average number of basis functions per batch  ...   124.03 (38.52%)
Average number of large shells per batch     ...    37.83 (59.91%)
Average number of large basis fcns per batch ...    78.04 (62.92%)
Maximum spatial batch extension              ...  14.65, 12.55, 13.78 au
Average spatial batch extension              ...   0.12,  0.12,  0.12 au

Final grid set up in    0.9 sec
Final integration                            ... done (   0.3 sec)
Change in XC energy                          ...     0.005758188
Integrated number of electrons               ...   133.999866071
Previous integrated no of electrons          ...   134.001724723

----------------
TOTAL SCF ENERGY
----------------

Total Energy       :        -1339.86259327 Eh          -36459.51473 eV

Components:
Nuclear Repulsion  :         1277.77413575 Eh           34770.00191 eV
Electronic Energy  :        -2617.63672902 Eh          -71229.51664 eV
One Electron Energy:        -4372.24859413 Eh         -118974.93282 eV
Two Electron Energy:         1754.61186511 Eh           47745.41618 eV

Virial components:
Potential Energy   :        -2671.51049839 Eh          -72695.49643 eV
Kinetic Energy     :         1331.64790511 Eh           36235.98170 eV
Virial Ratio       :            2.00616881


DFT components:
N(Alpha)           :       66.999933035448 electrons
N(Beta)            :       66.999933035448 electrons
N(Total)           :      133.999866070895 electrons
E(XC)              :      -94.271922295607 Eh       
DFET-embed. en.    :        0.000000000000 Eh       

---------------
SCF CONVERGENCE
---------------

  Last Energy change         ...   -2.0004e-07  Tolerance :   1.0000e-06
  Last MAX-Density change    ...    3.0859e-05  Tolerance :   1.0000e-05
  Last RMS-Density change    ...    5.7801e-07  Tolerance :   1.0000e-06
  Last Orbital Gradient      ...    5.5761e-06  Tolerance :   5.0000e-05
  Last Orbital Rotation      ...    1.1257e-05  Tolerance :   5.0000e-05

             **** THE GBW FILE WAS UPDATED (config_4067.gbw) ****
             **** DENSITY FILE WAS UPDATED (config_4067.scfp) ****
             **** ENERGY FILE WAS UPDATED (config_4067.en.tmp) ****
             **** THE GBW FILE WAS UPDATED (config_4067.gbw) ****
             **** DENSITY FILE WAS UPDATED (config_4067.scfp) ****
----------------
ORBITAL ENERGIES
----------------

  NO   OCC          E(Eh)            E(eV) 
   0   2.0000     -88.963757     -2420.8269 
   1   2.0000     -88.962516     -2420.7931 
   2   2.0000     -10.327843      -281.0349 
   3   2.0000     -10.323587      -280.9191 
   4   2.0000     -10.314173      -280.6629 
   5   2.0000     -10.307130      -280.4713 
   6   2.0000     -10.302965      -280.3579 
   7   2.0000     -10.301156      -280.3087 
   8   2.0000     -10.296940      -280.1940 
   9   2.0000     -10.296521      -280.1826 
  10   2.0000     -10.289937      -280.0034 
  11   2.0000     -10.288728      -279.9705 
  12   2.0000     -10.286825      -279.9187 
  13   2.0000     -10.284377      -279.8521 
  14   2.0000     -10.279740      -279.7259 
  15   2.0000     -10.275906      -279.6216 
  16   2.0000      -8.078846      -219.8366 
  17   2.0000      -8.078149      -219.8176 
  18   2.0000      -6.037395      -164.2859 
  19   2.0000      -6.036663      -164.2659 
  20   2.0000      -6.033287      -164.1741 
  21   2.0000      -6.032472      -164.1519 
  22   2.0000      -6.029540      -164.0721 
  23   2.0000      -6.028906      -164.0549 
  24   2.0000      -1.011505       -27.5245 
  25   2.0000      -0.990716       -26.9588 
  26   2.0000      -0.911265       -24.7968 
  27   2.0000      -0.906576       -24.6692 
  28   2.0000      -0.875184       -23.8150 
  29   2.0000      -0.848997       -23.1024 
  30   2.0000      -0.842334       -22.9211 
  31   2.0000      -0.821043       -22.3417 
  32   2.0000      -0.777344       -21.1526 
  33   2.0000      -0.767317       -20.8798 
  34   2.0000      -0.712480       -19.3876 
  35   2.0000      -0.697243       -18.9729 
  36   2.0000      -0.689882       -18.7726 
  37   2.0000      -0.657217       -17.8838 
  38   2.0000      -0.638733       -17.3808 
  39   2.0000      -0.620336       -16.8802 
  40   2.0000      -0.594419       -16.1750 
  41   2.0000      -0.575828       -15.6691 
  42   2.0000      -0.565042       -15.3756 
  43   2.0000      -0.559446       -15.2233 
  44   2.0000      -0.532260       -14.4835 
  45   2.0000      -0.524898       -14.2832 
  46   2.0000      -0.512752       -13.9527 
  47   2.0000      -0.510021       -13.8784 
  48   2.0000      -0.504104       -13.7174 
  49   2.0000      -0.500877       -13.6296 
  50   2.0000      -0.494818       -13.4647 
  51   2.0000      -0.478480       -13.0201 
  52   2.0000      -0.466292       -12.6885 
  53   2.0000      -0.464326       -12.6350 
  54   2.0000      -0.456857       -12.4317 
  55   2.0000      -0.447219       -12.1695 
  56   2.0000      -0.444712       -12.1012 
  57   2.0000      -0.441076       -12.0023 
  58   2.0000      -0.439507       -11.9596 
  59   2.0000      -0.430534       -11.7154 
  60   2.0000      -0.420600       -11.4451 
  61   2.0000      -0.410028       -11.1574 
  62   2.0000      -0.406106       -11.0507 
  63   2.0000      -0.341658        -9.2970 
  64   2.0000      -0.328540        -8.9400 
  65   2.0000      -0.326366        -8.8809 
  66   2.0000      -0.307485        -8.3671 
  67   0.0000       0.045102         1.2273 
  68   0.0000       0.063397         1.7251 
  69   0.0000       0.121549         3.3075 
  70   0.0000       0.128410         3.4942 
  71   0.0000       0.130288         3.5453 
  72   0.0000       0.138941         3.7808 
  73   0.0000       0.149233         4.0608 
  74   0.0000       0.155441         4.2298 
  75   0.0000       0.161583         4.3969 
  76   0.0000       0.165109         4.4929 
  77   0.0000       0.174149         4.7388 
  78   0.0000       0.186656         5.0792 
  79   0.0000       0.187885         5.1126 
  80   0.0000       0.197460         5.3732 
  81   0.0000       0.204136         5.5548 
  82   0.0000       0.213069         5.7979 
  83   0.0000       0.215496         5.8640 
  84   0.0000       0.218606         5.9486 
  85   0.0000       0.233445         6.3524 
  86   0.0000       0.240772         6.5517 
  87   0.0000       0.241110         6.5609 
  88   0.0000       0.246080         6.6962 
  89   0.0000       0.250209         6.8085 
  90   0.0000       0.252393         6.8680 
  91   0.0000       0.258336         7.0297 
  92   0.0000       0.279985         7.6188 
  93   0.0000       0.306847         8.3497 
  94   0.0000       0.310808         8.4575 
  95   0.0000       0.317008         8.6262 
  96   0.0000       0.318930         8.6785 
  97   0.0000       0.330038         8.9808 
  98   0.0000       0.336584         9.1589 
  99   0.0000       0.363524         9.8920 
 100   0.0000       0.386214        10.5094 
 101   0.0000       0.406207        11.0535 
 102   0.0000       0.416562        11.3352 
 103   0.0000       0.423117        11.5136 
 104   0.0000       0.434429        11.8214 
 105   0.0000       0.448648        12.2083 
 106   0.0000       0.467395        12.7185 
 107   0.0000       0.483591        13.1592 
 108   0.0000       0.493200        13.4206 
 109   0.0000       0.499064        13.5802 
 110   0.0000       0.505824        13.7642 
 111   0.0000       0.511497        13.9185 
 112   0.0000       0.519715        14.1422 
 113   0.0000       0.525060        14.2876 
 114   0.0000       0.529787        14.4162 
 115   0.0000       0.538424        14.6513 
 116   0.0000       0.545980        14.8569 
 117   0.0000       0.553063        15.0496 
 118   0.0000       0.560375        15.2486 
 119   0.0000       0.571455        15.5501 
 120   0.0000       0.585589        15.9347 
 121   0.0000       0.590920        16.0797 
 122   0.0000       0.597007        16.2454 
 123   0.0000       0.600747        16.3472 
 124   0.0000       0.620353        16.8807 
 125   0.0000       0.623645        16.9702 
 126   0.0000       0.633515        17.2388 
 127   0.0000       0.640137        17.4190 
 128   0.0000       0.653748        17.7894 
 129   0.0000       0.660940        17.9851 
 130   0.0000       0.663881        18.0651 
 131   0.0000       0.672271        18.2934 
 132   0.0000       0.677886        18.4462 
 133   0.0000       0.694495        18.8982 
 134   0.0000       0.708013        19.2660 
 135   0.0000       0.708690        19.2844 
 136   0.0000       0.719041        19.5661 
 137   0.0000       0.722066        19.6484 
 138   0.0000       0.726645        19.7730 
 139   0.0000       0.732052        19.9202 
 140   0.0000       0.734341        19.9824 
 141   0.0000       0.739508        20.1230 
 142   0.0000       0.745873        20.2962 
 143   0.0000       0.750439        20.4205 
 144   0.0000       0.755513        20.5586 
 145   0.0000       0.761562        20.7232 
 146   0.0000       0.771780        21.0012 
 147   0.0000       0.776741        21.1362 
 148   0.0000       0.783255        21.3134 
 149   0.0000       0.787275        21.4229 
 150   0.0000       0.794264        21.6130 
 151   0.0000       0.799266        21.7491 
 152   0.0000       0.800115        21.7722 
 153   0.0000       0.803941        21.8763 
 154   0.0000       0.807053        21.9610 
 155   0.0000       0.809205        22.0196 
 156   0.0000       0.812428        22.1073 
 157   0.0000       0.817958        22.2578 
 158   0.0000       0.819164        22.2906 
 159   0.0000       0.822292        22.3757 
 160   0.0000       0.828948        22.5568 
 161   0.0000       0.833518        22.6812 
 162   0.0000       0.835161        22.7259 
 163   0.0000       0.851278        23.1645 
 164   0.0000       0.854747        23.2588 
 165   0.0000       0.866439        23.5770 
 166   0.0000       0.876079        23.8393 
 167   0.0000       0.883925        24.0528 
 168   0.0000       0.889586        24.2069 
 169   0.0000       0.897318        24.4173 
 170   0.0000       0.915059        24.9000 
 171   0.0000       0.918139        24.9838 
 172   0.0000       0.927425        25.2365 
 173   0.0000       0.950289        25.8587 
 174   0.0000       0.960966        26.1492 
 175   0.0000       0.966996        26.3133 
 176   0.0000       0.995020        27.0759 
 177   0.0000       0.998326        27.1658 
 178   0.0000       1.009675        27.4746 
 179   0.0000       1.037714        28.2376 
 180   0.0000       1.048759        28.5382 
 181   0.0000       1.066117        29.0105 
 182   0.0000       1.093713        29.7614 
 183   0.0000       1.095958        29.8225 
 184   0.0000       1.115634        30.3580 
 185   0.0000       1.131768        30.7970 
 186   0.0000       1.136146        30.9161 
 187   0.0000       1.155769        31.4501 
 188   0.0000       1.189207        32.3600 
 189   0.0000       1.203099        32.7380 
 190   0.0000       1.214262        33.0417 
 191   0.0000       1.224242        33.3133 
 192   0.0000       1.261005        34.3137 
 193   0.0000       1.267721        34.4964 
 194   0.0000       1.282911        34.9098 
 195   0.0000       1.303270        35.4638 
 196   0.0000       1.317728        35.8572 
 197   0.0000       1.339340        36.4453 
 198   0.0000       1.368552        37.2402 
 199   0.0000       1.388213        37.7752 
 200   0.0000       1.397972        38.0408 
 201   0.0000       1.427217        38.8365 
 202   0.0000       1.430113        38.9154 
 203   0.0000       1.437262        39.1099 
 204   0.0000       1.441365        39.2215 
 205   0.0000       1.473246        40.0891 
 206   0.0000       1.499959        40.8160 
 207   0.0000       1.518700        41.3259 
 208   0.0000       1.530339        41.6426 
 209   0.0000       1.556456        42.3533 
 210   0.0000       1.565841        42.6087 
 211   0.0000       1.602530        43.6071 
 212   0.0000       1.617205        44.0064 
 213   0.0000       1.632554        44.4241 
 214   0.0000       1.633252        44.4430 
 215   0.0000       1.640557        44.6418 
 216   0.0000       1.682950        45.7954 
 217   0.0000       1.694505        46.1098 
 218   0.0000       1.735373        47.2219 
 219   0.0000       1.783043        48.5191 
 220   0.0000       1.790676        48.7268 
 221   0.0000       1.798184        48.9311 
 222   0.0000       1.804062        49.0910 
 223   0.0000       1.810037        49.2536 
 224   0.0000       1.824276        49.6411 
 225   0.0000       1.832383        49.8617 
 226   0.0000       1.836166        49.9646 
 227   0.0000       1.845898        50.2294 
 228   0.0000       1.854087        50.4523 
 229   0.0000       1.859752        50.6064 
 230   0.0000       1.865743        50.7695 
 231   0.0000       1.871559        50.9277 
 232   0.0000       1.877555        51.0909 
 233   0.0000       1.886910        51.3454 
 234   0.0000       1.893203        51.5167 
 235   0.0000       1.897423        51.6315 
 236   0.0000       1.905182        51.8426 
 237   0.0000       1.915631        52.1270 
 238   0.0000       1.926979        52.4358 
 239   0.0000       1.939457        52.7753 
 240   0.0000       1.942787        52.8659 
 241   0.0000       1.948111        53.0108 
 242   0.0000       1.953362        53.1537 
 243   0.0000       1.971977        53.6602 
 244   0.0000       1.974126        53.7187 
 245   0.0000       1.991673        54.1962 
 246   0.0000       1.993809        54.2543 
 247   0.0000       2.000723        54.4424 
 248   0.0000       2.009386        54.6782 
 249   0.0000       2.015622        54.8479 
 250   0.0000       2.029784        55.2332 
 251   0.0000       2.034399        55.3588 
 252   0.0000       2.052976        55.8643 
 253   0.0000       2.079929        56.5977 
 254   0.0000       2.084706        56.7277 
 255   0.0000       2.107166        57.3389 
 256   0.0000       2.113448        57.5098 
 257   0.0000       2.133224        58.0480 
 258   0.0000       2.160608        58.7931 
 259   0.0000       2.163683        58.8768 
 260   0.0000       2.179128        59.2971 
 261   0.0000       2.188568        59.5540 
 262   0.0000       2.197438        59.7953 
 263   0.0000       2.202812        59.9416 
 264   0.0000       2.237015        60.8723 
 265   0.0000       2.240921        60.9786 
 266   0.0000       2.250613        61.2423 
 267   0.0000       2.263081        61.5816 
 268   0.0000       2.283610        62.1402 
 269   0.0000       2.313461        62.9525 
 270   0.0000       2.316046        63.0228 
 271   0.0000       2.347356        63.8748 
 272   0.0000       2.371842        64.5411 
 273   0.0000       2.386030        64.9272 
 274   0.0000       2.410771        65.6004 
 275   0.0000       2.425649        66.0053 
 276   0.0000       2.437276        66.3216 
 277   0.0000       2.461446        66.9793 
 278   0.0000       2.467910        67.1553 
 279   0.0000       2.491676        67.8020 
 280   0.0000       2.505664        68.1826 
 281   0.0000       2.516390        68.4744 
 282   0.0000       2.527563        68.7785 
 283   0.0000       2.531411        68.8832 
 284   0.0000       2.543338        69.2077 
 285   0.0000       2.548955        69.3606 
 286   0.0000       2.568428        69.8905 
 287   0.0000       2.573836        70.0376 
 288   0.0000       2.586157        70.3729 
 289   0.0000       2.625707        71.4491 
 290   0.0000       2.630186        71.5710 
 291   0.0000       2.646631        72.0185 
 292   0.0000       2.669092        72.6297 
 293   0.0000       2.678335        72.8812 
 294   0.0000       2.724858        74.1472 
 295   0.0000       2.729992        74.2869 
 296   0.0000       2.747416        74.7610 
 297   0.0000       2.781511        75.6888 
 298   0.0000       2.796711        76.1024 
 299   0.0000       2.833080        77.0920 
 300   0.0000       2.858056        77.7717 
 301   0.0000       2.883717        78.4699 
 302   0.0000       2.914471        79.3068 
 303   0.0000       2.919714        79.4495 
 304   0.0000       2.935444        79.8775 
 305   0.0000       2.947989        80.2189 
 306   0.0000       2.979632        81.0799 
 307   0.0000       3.007145        81.8286 
 308   0.0000       3.014834        82.0378 
 309   0.0000       3.032140        82.5087 
 310   0.0000       3.051219        83.0279 
 311   0.0000       3.069995        83.5388 
 312   0.0000       3.083378        83.9030 
 313   0.0000       3.104056        84.4657 
 314   0.0000       3.122224        84.9600 
 315   0.0000       3.141671        85.4892 
 316   0.0000       3.158527        85.9479 
 317   0.0000       3.170711        86.2794 
 318   0.0000       3.212502        87.4166 
 319   0.0000       3.244436        88.2856 
 320   0.0000       3.352120        91.2158 
 321   0.0000       3.431036        93.3632 

                    ********************************
                    * MULLIKEN POPULATION ANALYSIS *
                    ********************************

-----------------------
MULLIKEN ATOMIC CHARGES
-----------------------
   0 S :    0.117645
   1 C :   -0.137671
   2 C :   -0.115590
   3 C :    0.033058
   4 C :   -0.163901
   5 H :    0.027941
   6 C :    0.053190
   7 H :    0.054517
   8 H :    0.014511
   9 C :   -0.102090
  10 H :    0.036841
  11 H :    0.048296
  12 C :   -0.035883
  13 H :    0.048592
  14 H :    0.026019
  15 H :    0.020159
  16 S :    0.110849
  17 C :   -0.054644
  18 C :   -0.050837
  19 C :   -0.014180
  20 C :   -0.183834
  21 H :    0.012618
  22 C :    0.032738
  23 H :    0.026210
  24 H :    0.033973
  25 C :   -0.052266
  26 H :    0.034570
  27 H :    0.019362
  28 C :   -0.044457
  29 H :    0.031127
  30 H :    0.029689
  31 H :    0.036525
  32 H :    0.067447
  33 H :    0.039477
Sum of atomic charges:    0.0000000

--------------------------------
MULLIKEN REDUCED ORBITAL CHARGES
--------------------------------
  0 S s       :     5.841155  s :     5.841155
      pz      :     3.422330  p :     9.931700
      px      :     3.248988
      py      :     3.260383
      dz2     :     0.020244  d :     0.109499
      dxz     :     0.016761
      dyz     :     0.019741
      dx2y2   :     0.027778
      dxy     :     0.024977
  1 C s       :     3.178781  s :     3.178781
      pz      :     1.046387  p :     2.922929
      px      :     1.009435
      py      :     0.867107
      dz2     :     0.004076  d :     0.035961
      dxz     :     0.004710
      dyz     :     0.008173
      dx2y2   :     0.009153
      dxy     :     0.009849
  2 C s       :     3.078686  s :     3.078686
      pz      :     0.999330  p :     2.993084
      px      :     0.997883
      py      :     0.995871
      dz2     :     0.006279  d :     0.043821
      dxz     :     0.005546
      dyz     :     0.009836
      dx2y2   :     0.010063
      dxy     :     0.012095
  3 C s       :     3.194659  s :     3.194659
      pz      :     0.958417  p :     2.737068
      px      :     0.902859
      py      :     0.875791
      dz2     :     0.004647  d :     0.035215
      dxz     :     0.004585
      dyz     :     0.007374
      dx2y2   :     0.008816
      dxy     :     0.009793
  4 C s       :     3.066015  s :     3.066015
      pz      :     1.059191  p :     3.052400
      px      :     1.018858
      py      :     0.974351
      dz2     :     0.005755  d :     0.045486
      dxz     :     0.007161
      dyz     :     0.011500
      dx2y2   :     0.010633
      dxy     :     0.010436
  5 H s       :     0.949451  s :     0.949451
      pz      :     0.006294  p :     0.022608
      px      :     0.009837
      py      :     0.006477
  6 C s       :     3.002503  s :     3.002503
      pz      :     0.992535  p :     2.909656
      px      :     0.981951
      py      :     0.935170
      dz2     :     0.004966  d :     0.034651
      dxz     :     0.007664
      dyz     :     0.007379
      dx2y2   :     0.009843
      dxy     :     0.004799
  7 H s       :     0.925905  s :     0.925905
      pz      :     0.010506  p :     0.019578
      px      :     0.003434
      py      :     0.005638
  8 H s       :     0.963331  s :     0.963331
      pz      :     0.007205  p :     0.022157
      px      :     0.011063
      py      :     0.003889
  9 C s       :     3.093393  s :     3.093393
      pz      :     0.993779  p :     2.974020
      px      :     0.999777
      py      :     0.980464
      dz2     :     0.003081  d :     0.034677
      dxz     :     0.010254
      dyz     :     0.008321
      dx2y2   :     0.006507
      dxy     :     0.006515
 10 H s       :     0.940473  s :     0.940473
      pz      :     0.008426  p :     0.022686
      px      :     0.008947
      py      :     0.005313
 11 H s       :     0.929851  s :     0.929851
      pz      :     0.007804  p :     0.021852
      px      :     0.005274
      py      :     0.008773
 12 C s       :     3.011464  s :     3.011464
      pz      :     1.004708  p :     2.997436
      px      :     1.013656
      py      :     0.979071
      dz2     :     0.001834  d :     0.026984
      dxz     :     0.008685
      dyz     :     0.006593
      dx2y2   :     0.005874
      dxy     :     0.003999
 13 H s       :     0.930231  s :     0.930231
      pz      :     0.007326  p :     0.021177
      px      :     0.004407
      py      :     0.009444
 14 H s       :     0.948077  s :     0.948077
      pz      :     0.010029  p :     0.025905
      px      :     0.010305
      py      :     0.005570
 15 H s       :     0.954532  s :     0.954532
      pz      :     0.006951  p :     0.025308
      px      :     0.012542
      py      :     0.005815
 16 S s       :     5.842341  s :     5.842341
      pz      :     3.272490  p :     9.933733
      px      :     3.289283
      py      :     3.371960
      dz2     :     0.027447  d :     0.113077
      dxz     :     0.023898
      dyz     :     0.022113
      dx2y2   :     0.022093
      dxy     :     0.017526
 17 C s       :     3.106473  s :     3.106473
      pz      :     0.880737  p :     2.910739
      px      :     0.985819
      py      :     1.044182
      dz2     :     0.010391  d :     0.037433
      dxz     :     0.009176
      dyz     :     0.009146
      dx2y2   :     0.004512
      dxy     :     0.004209
 18 C s       :     3.181839  s :     3.181839
      pz      :     0.871034  p :     2.832733
      px      :     0.972250
      py      :     0.989448
      dz2     :     0.008617  d :     0.036265
      dxz     :     0.008641
      dyz     :     0.006953
      dx2y2   :     0.007016
      dxy     :     0.005039
 19 C s       :     3.058581  s :     3.058581
      pz      :     0.969673  p :     2.912471
      px      :     0.972548
      py      :     0.970250
      dz2     :     0.011727  d :     0.043128
      dxz     :     0.010147
      dyz     :     0.009094
      dx2y2   :     0.006020
      dxy     :     0.006140
 20 C s       :     3.068322  s :     3.068322
      pz      :     1.035509  p :     3.070222
      px      :     0.994545
      py      :     1.040169
      dz2     :     0.011449  d :     0.045289
      dxz     :     0.010743
      dyz     :     0.010760
      dx2y2   :     0.005597
      dxy     :     0.006740
 21 H s       :     0.963091  s :     0.963091
      pz      :     0.014637  p :     0.024291
      px      :     0.004870
      py      :     0.004785
 22 C s       :     2.972788  s :     2.972788
      pz      :     0.977527  p :     2.959697
      px      :     1.011901
      py      :     0.970269
      dz2     :     0.003199  d :     0.034777
      dxz     :     0.009798
      dyz     :     0.008558
      dx2y2   :     0.007138
      dxy     :     0.006084
 23 H s       :     0.952093  s :     0.952093
      pz      :     0.010013  p :     0.021697
      px      :     0.005715
      py      :     0.005970
 24 H s       :     0.942527  s :     0.942527
      pz      :     0.008839  p :     0.023500
      px      :     0.010783
      py      :     0.003878
 25 C s       :     3.047139  s :     3.047139
      pz      :     0.968981  p :     2.968720
      px      :     1.019490
      py      :     0.980250
      dz2     :     0.006680  d :     0.036407
      dxz     :     0.006803
      dyz     :     0.009564
      dx2y2   :     0.009411
      dxy     :     0.003948
 26 H s       :     0.943979  s :     0.943979
      pz      :     0.010404  p :     0.021452
      px      :     0.003912
      py      :     0.007135
 27 H s       :     0.956262  s :     0.956262
      pz      :     0.006158  p :     0.024376
      px      :     0.013996
      py      :     0.004222
 28 C s       :     3.006129  s :     3.006129
      pz      :     0.977565  p :     3.009605
      px      :     1.008222
      py      :     1.023817
      dz2     :     0.006694  d :     0.028723
      dxz     :     0.004472
      dyz     :     0.006571
      dx2y2   :     0.007903
      dxy     :     0.003084
 29 H s       :     0.944648  s :     0.944648
      pz      :     0.005195  p :     0.024225
      px      :     0.013929
      py      :     0.005102
 30 H s       :     0.946460  s :     0.946460
      pz      :     0.005377  p :     0.023851
      px      :     0.005897
      py      :     0.012576
 31 H s       :     0.940154  s :     0.940154
      pz      :     0.010751  p :     0.023321
      px      :     0.004696
      py      :     0.007874
 32 H s       :     0.910935  s :     0.910935
      pz      :     0.008207  p :     0.021618
      px      :     0.010098
      py      :     0.003313
 33 H s       :     0.934784  s :     0.934784
      pz      :     0.004546  p :     0.025739
      px      :     0.013062
      py      :     0.008132


                     *******************************
                     * LOEWDIN POPULATION ANALYSIS *
                     *******************************

----------------------
LOEWDIN ATOMIC CHARGES
----------------------
   0 S :    0.405811
   1 C :   -0.215977
   2 C :   -0.077097
   3 C :   -0.060434
   4 C :   -0.199464
   5 H :    0.034803
   6 C :   -0.031064
   7 H :    0.042405
   8 H :    0.024232
   9 C :   -0.036172
  10 H :    0.022259
  11 H :    0.027582
  12 C :   -0.058086
  13 H :    0.036014
  14 H :    0.015575
  15 H :    0.016830
  16 S :    0.420403
  17 C :   -0.187455
  18 C :   -0.070010
  19 C :   -0.049916
  20 C :   -0.211711
  21 H :    0.030005
  22 C :   -0.039732
  23 H :    0.031226
  24 H :    0.034117
  25 C :   -0.035850
  26 H :    0.030786
  27 H :    0.015697
  28 C :   -0.062936
  29 H :    0.021537
  30 H :    0.027660
  31 H :    0.026667
  32 H :    0.045349
  33 H :    0.026946

-------------------------------
LOEWDIN REDUCED ORBITAL CHARGES
-------------------------------
  0 S s       :     5.496937  s :     5.496937
      pz      :     3.402341  p :     9.960613
      px      :     3.249936
      py      :     3.308335
      dz2     :     0.024792  d :     0.136640
      dxz     :     0.022691
      dyz     :     0.023100
      dx2y2   :     0.034831
      dxy     :     0.031226
  1 C s       :     2.935571  s :     2.935571
      pz      :     1.087948  p :     3.195206
      px      :     1.080194
      py      :     1.027064
      dz2     :     0.008470  d :     0.085200
      dxz     :     0.010113
      dyz     :     0.018736
      dx2y2   :     0.022863
      dxy     :     0.025018
  2 C s       :     2.865625  s :     2.865625
      pz      :     1.010051  p :     3.102974
      px      :     1.036571
      py      :     1.056352
      dz2     :     0.014011  d :     0.108498
      dxz     :     0.014021
      dyz     :     0.022079
      dx2y2   :     0.026407
      dxy     :     0.031980
  3 C s       :     2.870620  s :     2.870620
      pz      :     1.015165  p :     3.096994
      px      :     1.026531
      py      :     1.055297
      dz2     :     0.010648  d :     0.092821
      dxz     :     0.011162
      dyz     :     0.018681
      dx2y2   :     0.025463
      dxy     :     0.026866
  4 C s       :     2.901682  s :     2.901682
      pz      :     1.053115  p :     3.189257
      px      :     1.043802
      py      :     1.092341
      dz2     :     0.013743  d :     0.108525
      dxz     :     0.015771
      dyz     :     0.026562
      dx2y2   :     0.027443
      dxy     :     0.025006
  5 H s       :     0.899299  s :     0.899299
      pz      :     0.018722  p :     0.065898
      px      :     0.028368
      py      :     0.018808
  6 C s       :     2.848512  s :     2.848512
      pz      :     1.045107  p :     3.096600
      px      :     1.044599
      py      :     1.006893
      dz2     :     0.011425  d :     0.085952
      dxz     :     0.019959
      dyz     :     0.017929
      dx2y2   :     0.025516
      dxy     :     0.011124
  7 H s       :     0.901583  s :     0.901583
      pz      :     0.029755  p :     0.056012
      px      :     0.009511
      py      :     0.016746
  8 H s       :     0.909983  s :     0.909983
      pz      :     0.021057  p :     0.065785
      px      :     0.032805
      py      :     0.011923
  9 C s       :     2.844955  s :     2.844955
      pz      :     1.043728  p :     3.108442
      px      :     1.039694
      py      :     1.025020
      dz2     :     0.005405  d :     0.082775
      dxz     :     0.025497
      dyz     :     0.021395
      dx2y2   :     0.014566
      dxy     :     0.015912
 10 H s       :     0.907622  s :     0.907622
      pz      :     0.025525  p :     0.070119
      px      :     0.027392
      py      :     0.017202
 11 H s       :     0.905652  s :     0.905652
      pz      :     0.023735  p :     0.066767
      px      :     0.016497
      py      :     0.026535
 12 C s       :     2.838667  s :     2.838667
      pz      :     1.055823  p :     3.151965
      px      :     1.070524
      py      :     1.025618
      dz2     :     0.003627  d :     0.067454
      dxz     :     0.021172
      dyz     :     0.017867
      dx2y2   :     0.015164
      dxy     :     0.009623
 13 H s       :     0.906033  s :     0.906033
      pz      :     0.020020  p :     0.057953
      px      :     0.010844
      py      :     0.027089
 14 H s       :     0.907921  s :     0.907921
      pz      :     0.030276  p :     0.076504
      px      :     0.028745
      py      :     0.017483
 15 H s       :     0.911677  s :     0.911677
      pz      :     0.019939  p :     0.071493
      px      :     0.034469
      py      :     0.017085
 16 S s       :     5.488073  s :     5.488073
      pz      :     3.309218  p :     9.950642
      px      :     3.281908
      py      :     3.359516
      dz2     :     0.033870  d :     0.140882
      dxz     :     0.029070
      dyz     :     0.026386
      dx2y2   :     0.027344
      dxy     :     0.024211
 17 C s       :     2.911424  s :     2.911424
      pz      :     1.027272  p :     3.187597
      px      :     1.073008
      py      :     1.087316
      dz2     :     0.025785  d :     0.088434
      dxz     :     0.023095
      dyz     :     0.021589
      dx2y2   :     0.008064
      dxy     :     0.009901
 18 C s       :     2.861448  s :     2.861448
      pz      :     1.059669  p :     3.114057
      px      :     1.029021
      py      :     1.025367
      dz2     :     0.024809  d :     0.094505
      dxz     :     0.023073
      dyz     :     0.018222
      dx2y2   :     0.014867
      dxy     :     0.013533
 19 C s       :     2.863824  s :     2.863824
      pz      :     1.056190  p :     3.078841
      px      :     1.019899
      py      :     1.002752
      dz2     :     0.032861  d :     0.107251
      dxz     :     0.026094
      dyz     :     0.022322
      dx2y2   :     0.011370
      dxy     :     0.014605
 20 C s       :     2.897504  s :     2.897504
      pz      :     1.083838  p :     3.204174
      px      :     1.057776
      py      :     1.062560
      dz2     :     0.030801  d :     0.110033
      dxz     :     0.027104
      dyz     :     0.025888
      dx2y2   :     0.011449
      dxy     :     0.014790
 21 H s       :     0.898729  s :     0.898729
      pz      :     0.040292  p :     0.071265
      px      :     0.015846
      py      :     0.015128
 22 C s       :     2.838461  s :     2.838461
      pz      :     1.042838  p :     3.115327
      px      :     1.040410
      py      :     1.032079
      dz2     :     0.007373  d :     0.085944
      dxz     :     0.025120
      dyz     :     0.021499
      dx2y2   :     0.016668
      dxy     :     0.015285
 23 H s       :     0.906092  s :     0.906092
      pz      :     0.027240  p :     0.062682
      px      :     0.016596
      py      :     0.018846
 24 H s       :     0.897549  s :     0.897549
      pz      :     0.023665  p :     0.068335
      px      :     0.031341
      py      :     0.013329
 25 C s       :     2.831651  s :     2.831651
      pz      :     1.026773  p :     3.115550
      px      :     1.064284
      py      :     1.024494
      dz2     :     0.015343  d :     0.088649
      dxz     :     0.017524
      dyz     :     0.023204
      dx2y2   :     0.023273
      dxy     :     0.009305
 26 H s       :     0.907735  s :     0.907735
      pz      :     0.029293  p :     0.061480
      px      :     0.010933
      py      :     0.021253
 27 H s       :     0.908583  s :     0.908583
      pz      :     0.019001  p :     0.075719
      px      :     0.041004
      py      :     0.015714
 28 C s       :     2.831318  s :     2.831318
      pz      :     1.036070  p :     3.158556
      px      :     1.057601
      py      :     1.064886
      dz2     :     0.016270  d :     0.073062
      dxz     :     0.012431
      dyz     :     0.016996
      dx2y2   :     0.019619
      dxy     :     0.007747
 29 H s       :     0.908739  s :     0.908739
      pz      :     0.015418  p :     0.069724
      px      :     0.040058
      py      :     0.014249
 30 H s       :     0.906476  s :     0.906476
      pz      :     0.014801  p :     0.065864
      px      :     0.016372
      py      :     0.034691
 31 H s       :     0.908365  s :     0.908365
      pz      :     0.030892  p :     0.064967
      px      :     0.012552
      py      :     0.021523
 32 H s       :     0.889438  s :     0.889438
      pz      :     0.024498  p :     0.065212
      px      :     0.029032
      py      :     0.011682
 33 H s       :     0.892901  s :     0.892901
      pz      :     0.017364  p :     0.080153
      px      :     0.037894
      py      :     0.024895


                      *****************************
                      * MAYER POPULATION ANALYSIS *
                      *****************************

  NA   - Mulliken gross atomic population
  ZA   - Total nuclear charge
  QA   - Mulliken gross atomic charge
  VA   - Mayer's total valence
  BVA  - Mayer's bonded valence
  FA   - Mayer's free valence

  ATOM       NA         ZA         QA         VA         BVA        FA
  0 S     15.8824    16.0000     0.1176     2.4694     2.4694     0.0000
  1 C      6.1377     6.0000    -0.1377     3.8495     3.8495    -0.0000
  2 C      6.1156     6.0000    -0.1156     4.0397     4.0397    -0.0000
  3 C      5.9669     6.0000     0.0331     3.9137     3.9137     0.0000
  4 C      6.1639     6.0000    -0.1639     3.9006     3.9006     0.0000
  5 H      0.9721     1.0000     0.0279     1.0001     1.0001    -0.0000
  6 C      5.9468     6.0000     0.0532     3.9387     3.9387    -0.0000
  7 H      0.9455     1.0000     0.0545     0.9769     0.9769     0.0000
  8 H      0.9855     1.0000     0.0145     0.9983     0.9983    -0.0000
  9 C      6.1021     6.0000    -0.1021     4.0515     4.0515     0.0000
 10 H      0.9632     1.0000     0.0368     0.9768     0.9768     0.0000
 11 H      0.9517     1.0000     0.0483     0.9817     0.9817    -0.0000
 12 C      6.0359     6.0000    -0.0359     4.0044     4.0044    -0.0000
 13 H      0.9514     1.0000     0.0486     0.9854     0.9854    -0.0000
 14 H      0.9740     1.0000     0.0260     0.9898     0.9898    -0.0000
 15 H      0.9798     1.0000     0.0202     0.9948     0.9948     0.0000
 16 S     15.8892    16.0000     0.1108     2.4774     2.4774     0.0000
 17 C      6.0546     6.0000    -0.0546     3.8508     3.8508     0.0000
 18 C      6.0508     6.0000    -0.0508     3.9831     3.9831     0.0000
 19 C      6.0142     6.0000    -0.0142     4.0164     4.0164     0.0000
 20 C      6.1838     6.0000    -0.1838     3.9192     3.9192     0.0000
 21 H      0.9874     1.0000     0.0126     0.9947     0.9947    -0.0000
 22 C      5.9673     6.0000     0.0327     3.9571     3.9571    -0.0000
 23 H      0.9738     1.0000     0.0262     0.9908     0.9908    -0.0000
 24 H      0.9660     1.0000     0.0340     0.9856     0.9856    -0.0000
 25 C      6.0523     6.0000    -0.0523     4.0671     4.0671    -0.0000
 26 H      0.9654     1.0000     0.0346     0.9887     0.9887     0.0000
 27 H      0.9806     1.0000     0.0194     0.9834     0.9834    -0.0000
 28 C      6.0445     6.0000    -0.0445     4.0079     4.0079    -0.0000
 29 H      0.9689     1.0000     0.0311     0.9896     0.9896    -0.0000
 30 H      0.9703     1.0000     0.0297     0.9858     0.9858     0.0000
 31 H      0.9635     1.0000     0.0365     0.9876     0.9876     0.0000
 32 H      0.9326     1.0000     0.0674     1.0001     1.0001     0.0000
 33 H      0.9605     1.0000     0.0395     1.0005     1.0005     0.0000

  Mayer bond orders larger than 0.100000
B(  0-S ,  1-C ) :   1.1413 B(  0-S ,  4-C ) :   1.1320 B(  1-C ,  2-C ) :   1.6422 
B(  1-C , 32-H ) :   0.9493 B(  2-C ,  3-C ) :   1.2253 B(  2-C ,  6-C ) :   1.0239 
B(  3-C ,  4-C ) :   1.6056 B(  3-C ,  5-H ) :   0.9865 B(  4-C , 20-C ) :   1.0136 
B(  6-C ,  7-H ) :   0.9371 B(  6-C ,  8-H ) :   0.9478 B(  6-C ,  9-C ) :   1.0494 
B(  9-C , 10-H ) :   0.9532 B(  9-C , 11-H ) :   0.9635 B(  9-C , 12-C ) :   1.0763 
B( 12-C , 13-H ) :   0.9746 B( 12-C , 14-H ) :   0.9772 B( 12-C , 15-H ) :   0.9811 
B( 16-S , 17-C ) :   1.1430 B( 16-S , 20-C ) :   1.1505 B( 17-C , 18-C ) :   1.6491 
B( 17-C , 33-H ) :   0.9642 B( 18-C , 19-C ) :   1.2208 B( 18-C , 21-H ) :   0.9921 
B( 19-C , 20-C ) :   1.6148 B( 19-C , 22-C ) :   1.0400 B( 22-C , 23-H ) :   0.9477 
B( 22-C , 24-H ) :   0.9261 B( 22-C , 25-C ) :   1.0511 B( 25-C , 26-H ) :   0.9475 
B( 25-C , 27-H ) :   0.9624 B( 25-C , 28-C ) :   1.0844 B( 28-C , 29-H ) :   0.9746 
B( 28-C , 30-H ) :   0.9724 B( 28-C , 31-H ) :   0.9746 

-------
TIMINGS
-------

Total SCF time: 0 days 0 hours 0 min 19 sec 

Total time                  ....      19.671 sec
Sum of individual times     ....      18.811 sec  ( 95.6%)

Fock matrix formation       ....      17.144 sec  ( 87.2%)
  XC integration            ....       1.472 sec  (  8.6% of F)
    Basis function eval.    ....       0.141 sec  (  9.6% of XC)
    Density eval.           ....       0.104 sec  (  7.1% of XC)
    XC-Functional eval.     ....       0.114 sec  (  7.7% of XC)
    XC-Potential eval.      ....       0.123 sec  (  8.4% of XC)
Diagonalization             ....       0.136 sec  (  0.7%)
Density matrix formation    ....       0.023 sec  (  0.1%)
Population analysis         ....       0.057 sec  (  0.3%)
Initial guess               ....       0.168 sec  (  0.9%)
Orbital Transformation      ....       0.000 sec  (  0.0%)
Orbital Orthonormalization  ....       0.000 sec  (  0.0%)
DIIS solution               ....       0.149 sec  (  0.8%)
SOSCF solution              ....       0.124 sec  (  0.6%)
Grid generation             ....       1.010 sec  (  5.1%)


-------------------------------------------------------------------------------
                          DFT DISPERSION CORRECTION                            
                                                                               
                              DFTD3 V3.1  Rev 1                                
                              USING zero damping                               
-------------------------------------------------------------------------------
The omegaB97X-D3 functional is recognized. Fit by Chai et al.
Active option DFTDOPT                   ...         3   

molecular C6(AA) [au] = 14139.851640 


            DFT-D V3
 parameters
 s6 scaling factor         :     1.0000 
 rs6 scaling factor        :     1.2810 
 s8 scaling factor         :     1.0000 
 rs8 scaling factor        :     1.0940 
 Damping factor alpha6     :    14.0000 
 Damping factor alpha8     :    16.0000 
 ad hoc parameters k1-k3   :    16.0000     1.3333    -4.0000 

 Edisp/kcal,au: -8.926223437268  -0.014224840985 
 E6   /kcal   :  -4.057791185 
 E8   /kcal   :  -4.868432252 
 % E8         :  54.540784090 

-------------------------   ----------------
Dispersion correction           -0.014224841
-------------------------   ----------------


-------------------------   --------------------
FINAL SINGLE POINT ENERGY     -1339.876818115498
-------------------------   --------------------


                            ***************************************
                            *     ORCA property calculations      *
                            ***************************************

                                    ---------------------
                                    Active property flags
                                    ---------------------
   (+) Dipole Moment


------------------------------------------------------------------------------
                       ORCA ELECTRIC PROPERTIES CALCULATION
------------------------------------------------------------------------------

Dipole Moment Calculation                       ... on
Quadrupole Moment Calculation                   ... off
Polarizability Calculation                      ... off
GBWName                                         ... config_4067.gbw
Electron density file                           ... config_4067.scfp
The origin for moment calculation is the CENTER OF MASS  = (-244.239739, 114.375201 -104.481123)

-------------
DIPOLE MOMENT
-------------
                                X             Y             Z
Electronic contribution:     -5.16200      26.62765      -7.83894
Nuclear contribution   :      5.10008     -27.29062       8.16412
                        -----------------------------------------
Total Dipole Moment    :     -0.06193      -0.66297       0.32518
                        -----------------------------------------
Magnitude (a.u.)       :      0.74102
Magnitude (Debye)      :      1.88352



--------------------
Rotational spectrum 
--------------------
 
Rotational constants in cm-1:     0.017750     0.008313     0.006769 
Rotational constants in MHz :   532.118723   249.211566   202.936792 

 Dipole components along the rotational axes: 
x,y,z [a.u.] :    -0.208720     0.656916     0.272036 
x,y,z [Debye]:    -0.530523     1.669748     0.691461 

 

Timings for individual modules:

Sum of individual times         ...       20.840 sec (=   0.347 min)
GTO integral calculation        ...        0.789 sec (=   0.013 min)   3.8 %
SCF iterations                  ...       20.050 sec (=   0.334 min)  96.2 %
                             ****ORCA TERMINATED NORMALLY****
TOTAL RUN TIME: 0 days 0 hours 0 minutes 21 seconds 544 msec
