
                                 *****************
                                 * O   R   C   A *
                                 *****************

           --- An Ab Initio, DFT and Semiempirical electronic structure package ---

                  #######################################################
                  #                        -***-                        #
                  #          Department of theory and spectroscopy      #
                  #               Directorship: Frank Neese             #
                  #        Max Planck Institute fuer Kohlenforschung    #
                  #                Kaiser Wilhelm Platz 1               #
                  #                 D-45470 Muelheim/Ruhr               #
                  #                      Germany                        #
                  #                                                     #
                  #                  All rights reserved                #
                  #                        -***-                        #
                  #######################################################


                         Program Version 4.2.1 -  RELEASE  -


 With contributions from (in alphabetic order):
   Daniel Aravena         : Magnetic Suceptibility
   Michael Atanasov       : Ab Initio Ligand Field Theory (pilot matlab implementation)
   Alexander A. Auer      : GIAO ZORA, VPT2
   Ute Becker             : Parallelization
   Giovanni Bistoni       : ED, misc. LED, open-shell LED, HFLD
   Martin Brehm           : Molecular dynamics
   Dmytro Bykov           : SCF Hessian
   Vijay G. Chilkuri      : MRCI spin determinant printing, contributions to CSF-ICE
   Dipayan Datta          : RHF DLPNO-CCSD density
   Achintya Kumar Dutta   : EOM-CC, STEOM-CC
   Dmitry Ganyushin       : Spin-Orbit,Spin-Spin,Magnetic field MRCI
   Miquel Garcia          : C-PCM Hessian, Gaussian charge scheme
   Yang Guo               : DLPNO-NEVPT2, CIM, IAO-localization
   Andreas Hansen         : Spin unrestricted coupled pair/coupled cluster methods
   Benjamin Helmich-Paris : CASSCF linear response (MC-RPA)
   Lee Huntington         : MR-EOM, pCC
   Robert Izsak           : Overlap fitted RIJCOSX, COSX-SCS-MP3, EOM
   Christian Kollmar      : KDIIS, OOCD, Brueckner-CCSD(T), CCSD density
   Simone Kossmann        : Meta GGA functionals, TD-DFT gradient, OOMP2, MP2 Hessian
   Martin Krupicka        : AUTO-CI
   Lucas Lang             : DCDCAS
   Dagmar Lenk            : GEPOL surface, SMD
   Dimitrios Liakos       : Extrapolation schemes; Compound Job, initial MDCI parallelization
   Dimitrios Manganas     : Further ROCIS development; embedding schemes
   Dimitrios Pantazis     : SARC Basis sets
   Taras Petrenko         : DFT Hessian,TD-DFT gradient, ASA, ECA, R-Raman, ABS, FL, XAS/XES, NRVS
   Peter Pinski           : DLPNO-MP2, DLPNO-MP2 Gradient
   Christoph Reimann      : Effective Core Potentials
   Marius Retegan         : Local ZFS, SOC
   Christoph Riplinger    : Optimizer, TS searches, QM/MM, DLPNO-CCSD(T), (RO)-DLPNO pert. Triples
   Tobias Risthaus        : Range-separated hybrids, TD-DFT gradient, RPA, STAB
   Michael Roemelt        : Original ROCIS implementation
   Masaaki Saitow         : Open-shell DLPNO-CCSD energy and density
   Barbara Sandhoefer     : DKH picture change effects
   Avijit Sen             : IP-ROCIS
   Kantharuban Sivalingam : CASSCF convergence, NEVPT2, FIC-MRCI
   Bernardo de Souza      : ESD, SOC TD-DFT
   Georgi Stoychev        : AutoAux, RI-MP2 NMR
   Willem Van den Heuvel  : Paramagnetic NMR
   Boris Wezisla          : Elementary symmetry handling
   Frank Wennmohs         : Technical directorship


 We gratefully acknowledge several colleagues who have allowed us to
 interface, adapt or use parts of their codes:
   Stefan Grimme, W. Hujo, H. Kruse,             : VdW corrections, initial TS optimization,
                  C. Bannwarth                     DFT functionals, gCP, sTDA/sTD-DF
   Ed Valeev, F. Pavosevic, A. Kumar             : LibInt (2-el integral package), F12 methods
   Garnet Chan, S. Sharma, J. Yang, R. Olivares  : DMRG
   Ulf Ekstrom                                   : XCFun DFT Library
   Mihaly Kallay                                 : mrcc  (arbitrary order and MRCC methods)
   Andreas Klamt, Michael Diedenhofen            : otool_cosmo (COSMO solvation model)
   Jiri Pittner, Ondrej Demel                    : Mk-CCSD
   Frank Weinhold                                : gennbo (NPA and NBO analysis)
   Christopher J. Cramer and Donald G. Truhlar   : smd solvation model
   Lars Goerigk                                  : TD-DFT with DH, B97 family of functionals
   V. Asgeirsson, H. Jonsson                     : NEB implementation
   FAccTs GmbH                                   : IRC, NEB, NEB-TS, Multilevel, MM, QM/MM, CI optimization
   S Lehtola, MJT Oliveira, MAL Marques          : LibXC Library


 Your calculation uses the libint2 library for the computation of 2-el integrals
 For citations please refer to: http://libint.valeyev.net

 Your ORCA version has been built with support for libXC version: 4.2.3
 For citations please refer to: https://tddft.org/programs/libxc/

 This ORCA versions uses:
   CBLAS   interface :  Fast vector & matrix operations
   LAPACKE interface :  Fast linear algebra routines
   SCALAPACK package :  Parallel linear algebra routines


Your calculation utilizes the atom-pairwise dispersion correction
with the zero-damping scheme (D30)
Cite in your paper:
S.Grimme, J.Antony, S.Ehrlich and H.Krieg, J.Chem.Phys., 132, (2010), 154104 
   

XCFun DFT library Copyright 2009-2010 Ulf Ekstrom and contributors.
See http://admol.org/xcfun for more information. This is free soft-
ware; see the source code for copying conditions. There is ABSOLUTELY
NO WARRANTY; not even for MERCHANTABILITY or FITNESS FOR A PARTICULAR
PURPOSE. For details see the documentation. Scientific users of this 
library should cite U. Ekstrom, L. Visscher, R. Bast, A. J. Thorvald-
sen and K. Ruud; J.Chem.Theor.Comp. 2010, DOI: 10.1021/ct100117s
XCFun Version 0.99 
----- Orbital basis set information -----
Your calculation utilizes the basis: def2-SVP
   F. Weigend and R. Ahlrichs, Phys. Chem. Chem. Phys. 7, 3297 (2005).

================================================================================
                                        WARNINGS
                       Please study these warnings very carefully!
================================================================================


INFO   : the flag for use of LIBINT has been found!

================================================================================
                                       INPUT FILE
================================================================================
NAME = config_7098.inp
|  1> ! wB97X-D3 SP def2-SVP
|  2> %pal
|  3> nprocs 24
|  4> end
|  5> 
|  6> * xyz 0 1
|  7> S 	 -63.6657 	 15.2009 	 -76.4798 	 
|  8> C 	 -64.7609 	 13.9872 	 -75.7295 	 
|  9> C 	 -64.4234 	 13.6436 	 -74.4281 	 
| 10> C 	 -63.168 	 14.3002 	 -74.062 	 
| 11> C 	 -62.6782 	 15.2374 	 -74.9785 	 
| 12> H 	 -62.7474 	 14.2205 	 -73.0575 	 
| 13> C 	 -65.3717 	 12.7895 	 -73.6259 	 
| 14> H 	 -64.8206 	 11.9116 	 -73.3315 	 
| 15> H 	 -66.3085 	 12.4241 	 -74.1685 	 
| 16> C 	 -65.9705 	 13.6192 	 -72.4089 	 
| 17> H 	 -66.6178 	 12.9713 	 -71.7588 	 
| 18> H 	 -65.2225 	 13.9018 	 -71.7025 	 
| 19> C 	 -66.9072 	 14.7368 	 -72.9366 	 
| 20> H 	 -67.412 	 15.1127 	 -72.0629 	 
| 21> H 	 -66.3184 	 15.4641 	 -73.5947 	 
| 22> H 	 -67.6923 	 14.2808 	 -73.5834 	 
| 23> S 	 -60.0597 	 15.8797 	 -75.9102 	 
| 24> C 	 -59.1713 	 17.1148 	 -75.0838 	 
| 25> C 	 -59.8854 	 17.6336 	 -74.0238 	 
| 26> C 	 -61.2154 	 17.0274 	 -73.877 	 
| 27> C 	 -61.4791 	 16.1572 	 -74.8655 	 
| 28> H 	 -59.488 	 18.3451 	 -73.3584 	 
| 29> C 	 -62.1282 	 17.4937 	 -72.7905 	 
| 30> H 	 -61.5935 	 17.8845 	 -71.8907 	 
| 31> H 	 -62.7419 	 16.5876 	 -72.3707 	 
| 32> C 	 -63.0839 	 18.4894 	 -73.1824 	 
| 33> H 	 -63.6076 	 18.2661 	 -74.0734 	 
| 34> H 	 -62.4338 	 19.3786 	 -73.4021 	 
| 35> C 	 -64.023 	 18.9096 	 -72.0706 	 
| 36> H 	 -64.7961 	 19.5713 	 -72.4042 	 
| 37> H 	 -63.5573 	 19.5244 	 -71.336 	 
| 38> H 	 -64.6132 	 18.1118 	 -71.532 	 
| 39> H 	 -65.6501 	 13.5178 	 -76.1599 	 
| 40> H 	 -58.1634 	 17.4492 	 -75.3077 	 
| 41> *
| 42> 
| 43>                          ****END OF INPUT****
================================================================================

                       ****************************
                       * Single Point Calculation *
                       ****************************

---------------------------------
CARTESIAN COORDINATES (ANGSTROEM)
---------------------------------
  S    -63.665700   15.200900  -76.479800
  C    -64.760900   13.987200  -75.729500
  C    -64.423400   13.643600  -74.428100
  C    -63.168000   14.300200  -74.062000
  C    -62.678200   15.237400  -74.978500
  H    -62.747400   14.220500  -73.057500
  C    -65.371700   12.789500  -73.625900
  H    -64.820600   11.911600  -73.331500
  H    -66.308500   12.424100  -74.168500
  C    -65.970500   13.619200  -72.408900
  H    -66.617800   12.971300  -71.758800
  H    -65.222500   13.901800  -71.702500
  C    -66.907200   14.736800  -72.936600
  H    -67.412000   15.112700  -72.062900
  H    -66.318400   15.464100  -73.594700
  H    -67.692300   14.280800  -73.583400
  S    -60.059700   15.879700  -75.910200
  C    -59.171300   17.114800  -75.083800
  C    -59.885400   17.633600  -74.023800
  C    -61.215400   17.027400  -73.877000
  C    -61.479100   16.157200  -74.865500
  H    -59.488000   18.345100  -73.358400
  C    -62.128200   17.493700  -72.790500
  H    -61.593500   17.884500  -71.890700
  H    -62.741900   16.587600  -72.370700
  C    -63.083900   18.489400  -73.182400
  H    -63.607600   18.266100  -74.073400
  H    -62.433800   19.378600  -73.402100
  C    -64.023000   18.909600  -72.070600
  H    -64.796100   19.571300  -72.404200
  H    -63.557300   19.524400  -71.336000
  H    -64.613200   18.111800  -71.532000
  H    -65.650100   13.517800  -76.159900
  H    -58.163400   17.449200  -75.307700

----------------------------
CARTESIAN COORDINATES (A.U.)
----------------------------
  NO LB      ZA    FRAG     MASS         X           Y           Z
   0 S    16.0000    0    32.060  -120.310737   28.725538  -144.525877
   1 C     6.0000    0    12.011  -122.380365   26.431977  -143.108015
   2 C     6.0000    0    12.011  -121.742583   25.782667  -140.648726
   3 C     6.0000    0    12.011  -119.370220   27.023462  -139.956897
   4 C     6.0000    0    12.011  -118.444633   28.794513  -141.688831
   5 H     1.0000    0     1.008  -118.575402   26.872850  -138.058667
   6 C     6.0000    0    12.011  -123.534610   24.168652  -139.132787
   7 H     1.0000    0     1.008  -122.493182   22.509662  -138.576452
   8 H     1.0000    0     1.008  -125.304905   23.478146  -140.158153
   9 C     6.0000    0    12.011  -124.666178   25.736558  -136.832991
  10 H     1.0000    0     1.008  -125.889398   24.512205  -135.604480
  11 H     1.0000    0     1.008  -123.252663   26.270595  -135.498088
  12 C     6.0000    0    12.011  -126.436284   27.848516  -137.830199
  13 H     1.0000    0     1.008  -127.390218   28.558864  -136.179145
  14 H     1.0000    0     1.008  -125.323614   29.222914  -139.073828
  15 H     1.0000    0     1.008  -127.919908   26.986801  -139.052474
  16 S    16.0000    0    32.060  -113.496385   30.008284  -143.449489
  17 C     6.0000    0    12.011  -111.817552   32.342285  -141.887819
  18 C     6.0000    0    12.011  -113.167005   33.322675  -139.884709
  19 C     6.0000    0    12.011  -115.680341   32.177123  -139.607298
  20 C     6.0000    0    12.011  -116.178662   30.532683  -141.475292
  21 H     1.0000    0     1.008  -112.416028   34.667215  -138.627286
  22 C     6.0000    0    12.011  -117.405283   33.058302  -137.554110
  23 H     1.0000    0     1.008  -116.394847   33.796807  -135.853735
  24 H     1.0000    0     1.008  -118.565008   31.346021  -136.760803
  25 C     6.0000    0    12.011  -119.211294   34.939902  -138.294694
  26 H     1.0000    0     1.008  -120.200944   34.517927  -139.978440
  27 H     1.0000    0     1.008  -117.982784   36.620247  -138.709867
  28 C     6.0000    0    12.011  -120.985936   35.733965  -136.193696
  29 H     1.0000    0     1.008  -122.446884   36.984397  -136.824109
  30 H     1.0000    0     1.008  -120.105891   36.895769  -134.805503
  31 H     1.0000    0     1.008  -122.101253   34.226342  -135.175890
  32 H     1.0000    0     1.008  -124.060710   25.544940  -143.921353
  33 H     1.0000    0     1.008  -109.912897   32.974209  -142.310929

--------------------------------
INTERNAL COORDINATES (ANGSTROEM)
--------------------------------
 S      0   0   0     0.000000000000     0.00000000     0.00000000
 C      1   0   0     1.798744234181     0.00000000     0.00000000
 C      2   1   0     1.387663204816   114.21633047     0.00000000
 C      3   2   1     1.463277803426   109.40200105   355.08066991
 C      4   3   2     1.399364187765   115.90960796     8.03094069
 H      4   3   2     1.091914236559   121.86252931   176.02186615
 C      3   2   1     1.507409877903   119.10298809   171.36359234
 H      7   3   2     1.077539317148   106.57542122   121.98612798
 H      7   3   2     1.142596236647   116.37621987     3.06460096
 C      7   3   2     1.589985072257   110.40075004   246.42902512
 H     10   7   3     1.123121413739   111.04324353   184.30664207
 H     10   7   3     1.066943166246   112.39279628   295.38914297
 C     10   7   3     1.550775270631   110.06518388    68.05381292
 H     13  10   7     1.076789459458   104.98967526   169.12174123
 H     13  10   7     1.144004519222   110.06204850   298.43248517
 H     13  10   7     1.114750308365   109.14993371    55.32026736
 S      5   4   3     2.852570144624   133.31516519   219.20903041
 C     17   5   4     1.731376195401   118.40759853   268.35332739
 C     18  17   5     1.379381111223   111.68213370     0.72486181
 C     19  18  17     1.468988999278   112.97320555   359.13542818
 C     20  19  18     1.343100137741   111.81301013   355.95924352
 H     19  18  17     1.052100836422   123.01226567   175.50184398
 C     20  19  18     1.493694004808   119.81146255   181.05562982
 H     23  20  19     1.117259490897   113.73751987   331.39097701
 H     23  20  19     1.172124967740   109.82513609   216.01467256
 C     23  20  19     1.434700871262   115.15307898    95.70750099
 H     26  23  20     1.057357829687   114.42766519    47.95206473
 H     26  23  20     1.123198441950   102.55076762   292.71663248
 C     26  23  20     1.514785823145   113.89125549   178.16777623
 H     29  26  23     1.070896568302   112.97438098   186.28576069
 H     29  26  23     1.065125668642   113.28223533    73.45730001
 H     29  26  23     1.129119497662   118.56545805   305.48382517
 H      2   1   3     1.093735415903   128.34866995   178.55916587
 H     18  17   5     1.085272767557   126.71741888   178.51315820

---------------------------
INTERNAL COORDINATES (A.U.)
---------------------------
 S      0   0   0     0.000000000000     0.00000000     0.00000000
 C      1   0   0     3.399133987572     0.00000000     0.00000000
 C      2   1   0     2.622303423222   114.21633047     0.00000000
 C      3   2   1     2.765194306322   109.40200105   355.08066991
 C      4   3   2     2.644415076494   115.90960796     8.03094069
 H      4   3   2     2.063418868826   121.86252931   176.02186615
 C      3   2   1     2.848591840805   119.10298809   171.36359234
 H      7   3   2     2.036254207942   106.57542122   121.98612798
 H      7   3   2     2.159193968912   116.37621987     3.06460096
 C      7   3   2     3.004636343589   110.40075004   246.42902512
 H     10   7   3     2.122391887110   111.04324353   184.30664207
 H     10   7   3     2.016230384665   112.39279628   295.38914297
 C     10   7   3     2.930540556750   110.06518388    68.05381292
 H     13  10   7     2.034837182269   104.98967526   169.12174123
 H     13  10   7     2.161855237298   110.06204850   298.43248517
 H     13  10   7     2.106572790514   109.14993371    55.32026736
 S      5   4   3     5.390576351139   133.31516519   219.20903041
 C     17   5   4     3.271826844098   118.40759853   268.35332739
 C     18  17   5     2.606652534516   111.68213370     0.72486181
 C     19  18  17     2.775986902379   112.97320555   359.13542818
 C     20  19  18     2.538091430762   111.81301013   355.95924352
 H     19  18  17     1.988182446107   123.01226567   175.50184398
 C     20  19  18     2.822672596968   119.81146255   181.05562982
 H     23  20  19     2.111314458320   113.73751987   331.39097701
 H     23  20  19     2.214995183760   109.82513609   216.01467256
 C     23  20  19     2.711191730783   115.15307898    95.70750099
 H     26  23  20     1.998116723665   114.42766519    47.95206473
 H     26  23  20     2.122537449333   102.55076762   292.71663248
 C     26  23  20     2.862530357290   113.89125549   178.16777623
 H     29  26  23     2.023701231846   112.97438098   186.28576069
 H     29  26  23     2.012795811943   113.28223533    73.45730001
 H     29  26  23     2.133726623052   118.56545805   305.48382517
 H      2   1   3     2.066860399027   128.34866995   178.55916587
 H     18  17   5     2.050868311285   126.71741888   178.51315820

---------------------
BASIS SET INFORMATION
---------------------
There are 3 groups of distinct atoms

 Group   1 Type S   : 10s7p1d contracted to 4s3p1d pattern {5311/511/1}
 Group   2 Type C   : 7s4p1d contracted to 3s2p1d pattern {511/31/1}
 Group   3 Type H   : 4s1p contracted to 2s1p pattern {31/1}

Atom   0S    basis set group =>   1
Atom   1C    basis set group =>   2
Atom   2C    basis set group =>   2
Atom   3C    basis set group =>   2
Atom   4C    basis set group =>   2
Atom   5H    basis set group =>   3
Atom   6C    basis set group =>   2
Atom   7H    basis set group =>   3
Atom   8H    basis set group =>   3
Atom   9C    basis set group =>   2
Atom  10H    basis set group =>   3
Atom  11H    basis set group =>   3
Atom  12C    basis set group =>   2
Atom  13H    basis set group =>   3
Atom  14H    basis set group =>   3
Atom  15H    basis set group =>   3
Atom  16S    basis set group =>   1
Atom  17C    basis set group =>   2
Atom  18C    basis set group =>   2
Atom  19C    basis set group =>   2
Atom  20C    basis set group =>   2
Atom  21H    basis set group =>   3
Atom  22C    basis set group =>   2
Atom  23H    basis set group =>   3
Atom  24H    basis set group =>   3
Atom  25C    basis set group =>   2
Atom  26H    basis set group =>   3
Atom  27H    basis set group =>   3
Atom  28C    basis set group =>   2
Atom  29H    basis set group =>   3
Atom  30H    basis set group =>   3
Atom  31H    basis set group =>   3
Atom  32H    basis set group =>   3
Atom  33H    basis set group =>   3


           ************************************************************
           *        Program running with 24 parallel MPI-processes    *
           *              working on a common directory               *
           ************************************************************
------------------------------------------------------------------------------
                           ORCA GTO INTEGRAL CALCULATION
------------------------------------------------------------------------------

                         BASIS SET STATISTICS AND STARTUP INFO

 # of primitive gaussian shells          ...  294
 # of primitive gaussian functions       ...  534
 # of contracted shells                  ...  154
 # of contracted basis functions         ...  322
 Highest angular momentum                ...    2
 Maximum contraction depth               ...    5
 Integral package used                   ... LIBINT
 Integral threshhold            Thresh   ...  1.000e-10
 Primitive cut-off              TCut     ...  1.000e-11


------------------------------ INTEGRAL EVALUATION ----------------------------


 * One electron integrals 
 Pre-screening matrix                    ... done
 Shell pair data                         ... done (   0.003 sec)



           ************************************************************
           *        Program running with 24 parallel MPI-processes    *
           *              working on a common directory               *
           ************************************************************
-------------------------------------------------------------------------------
                                 ORCA SCF
-------------------------------------------------------------------------------

------------
SCF SETTINGS
------------
Hamiltonian:
 Density Functional     Method          .... DFT(GTOs)
 Exchange Functional    Exchange        .... WB97X-D3
 Correlation Functional Correlation     .... WB97X-D3
 Gradients option       PostSCFGGA      .... off
 Hybrid DFT is turned on
   Fraction HF Exchange ScalHFX         ....  0.195728
   Scaling of DF-GGA-X  ScalDFX         ....  0.000000
   Scaling of DF-GGA-C  ScalDFC         ....  1.000000
   Scaling of DF-LDA-C  ScalLDAC        ....  1.000000
   Perturbative correction              ....  0.000000
   Density functional embedding theory  .... OFF
 Long-range corrected/Screened/Range-Separated Hybrid DFT is turned on
   Amount of maximum screened exact exchange              ....  0.804272
   Range separation parameter mu (erf(mu*r12)/r12)        ....  0.250000


General Settings:
 Integral files         IntName         .... config_7098
 Hartree-Fock type      HFTyp           .... RHF
 Total Charge           Charge          ....    0
 Multiplicity           Mult            ....    1
 Number of Electrons    NEL             ....  134
 Basis Dimension        Dim             ....  322
 Nuclear Repulsion      ENuc            ....   1292.0432301275 Eh

Convergence Acceleration:
 DIIS                   CNVDIIS         .... on
   Start iteration      DIISMaxIt       ....    12
   Startup error        DIISStart       ....  0.200000
   # of expansion vecs  DIISMaxEq       ....     5
   Bias factor          DIISBfac        ....   1.050
   Max. coefficient     DIISMaxC        ....  10.000
 Newton-Raphson         CNVNR           .... off
 SOSCF                  CNVSOSCF        .... on
   Start iteration      SOSCFMaxIt      ....   150
   Startup grad/error   SOSCFStart      ....  0.003300
 Level Shifting         CNVShift        .... on
   Level shift para.    LevelShift      ....    0.2500
   Turn off err/grad.   ShiftErr        ....    0.0010
 Zerner damping         CNVZerner       .... off
 Static damping         CNVDamp         .... on
   Fraction old density DampFac         ....    0.7000
   Max. Damping (<1)    DampMax         ....    0.9800
   Min. Damping (>=0)   DampMin         ....    0.0000
   Turn off err/grad.   DampErr         ....    0.1000
 Fernandez-Rico         CNVRico         .... off

SCF Procedure:
 Maximum # iterations   MaxIter         ....   125
 SCF integral mode      SCFMode         .... Direct
   Integral package                     .... LIBINT
 Reset frequency        DirectResetFreq ....    20
 Integral Threshold     Thresh          ....  1.000e-10 Eh
 Primitive CutOff       TCut            ....  1.000e-11 Eh

Convergence Tolerance:
 Convergence Check Mode ConvCheckMode   .... Total+1el-Energy
 Convergence forced     ConvForced      .... 0
 Energy Change          TolE            ....  1.000e-06 Eh
 1-El. energy change                    ....  1.000e-03 Eh
 Orbital Gradient       TolG            ....  5.000e-05
 Orbital Rotation angle TolX            ....  5.000e-05
 DIIS Error             TolErr          ....  1.000e-06


Diagonalization of the overlap matrix:
Smallest eigenvalue                        ... 6.384e-04
Time for diagonalization                   ...    0.014 sec
Threshold for overlap eigenvalues          ... 1.000e-08
Number of eigenvalues below threshold      ... 0
Time for construction of square roots      ...    0.027 sec
Total time needed                          ...    0.041 sec

-------------------
DFT GRID GENERATION
-------------------

General Integration Accuracy     IntAcc      ...  4.340
Radial Grid Type                 RadialGrid  ... Gauss-Chebyshev
Angular Grid (max. acc.)         AngularGrid ... Lebedev-110
Angular grid pruning method      GridPruning ... 3 (G Style)
Weight generation scheme         WeightScheme... Becke
Basis function cutoff            BFCut       ...    1.0000e-10
Integration weight cutoff        WCut        ...    1.0000e-14
Grids for H and He will be reduced by one unit

# of grid points (after initial pruning)     ...  41088 (   0.0 sec)
# of grid points (after weights+screening)   ...  36901 (   0.0 sec)
nearest neighbour list constructed           ...    0.0 sec
Grid point re-assignment to atoms done       ...    0.0 sec
Grid point division into batches done        ...    0.0 sec
Reduced shell lists constructed in    0.1 sec

Total number of grid points                  ...    36901
Total number of batches                      ...      595
Average number of points per batch           ...       62
Average number of grid points per atom       ...     1085
Average number of shells per batch           ...    73.42 (47.68%)
Average number of basis functions per batch  ...   143.73 (44.64%)
Average number of large shells per batch     ...    46.96 (63.96%)
Average number of large basis fcns per batch ...    95.19 (66.23%)
Maximum spatial batch extension              ...  16.38, 20.91, 12.33 au
Average spatial batch extension              ...   0.18,  0.20,  0.17 au

Time for grid setup =    0.152 sec

------------------------------
INITIAL GUESS: MODEL POTENTIAL
------------------------------
Loading Hartree-Fock densities                     ... done
Calculating cut-offs                               ... done
Setting up the integral package                    ... done
Initializing the effective Hamiltonian             ... done
Starting the Coulomb interaction                   ... done (   0.0 sec)
Reading the grid                                   ... done
Mapping shells                                     ... done
Starting the XC term evaluation                    ... done (   0.0 sec)
  promolecular density results
     # of electrons  =    134.002645123
     EX              =   -126.663944939
     EC              =     -4.611273164
     EX+EC           =   -131.275218103
Transforming the Hamiltonian                       ... done (   0.0 sec)
Diagonalizing the Hamiltonian                      ... done (   0.0 sec)
Back transforming the eigenvectors                 ... done (   0.0 sec)
Now organizing SCF variables                       ... done
                      ------------------
                      INITIAL GUESS DONE (   0.3 sec)
                      ------------------
--------------
SCF ITERATIONS
--------------
ITER       Energy         Delta-E        Max-DP      RMS-DP      [F,P]     Damp
               ***  Starting incremental Fock matrix formation  ***
  0  -1339.4231485082   0.000000000000 0.06473245  0.00153987  0.1587073 0.7000
  1  -1339.6080856817  -0.184937173526 0.04336428  0.00112240  0.0957625 0.7000
                               ***Turning on DIIS***
  2  -1339.6969725151  -0.088886833363 0.07488428  0.00210185  0.0494380 0.0000
  3  -1339.8305769274  -0.133604412320 0.04151566  0.00095660  0.0360549 0.0000
  4  -1339.8599790651  -0.029402137677 0.00773001  0.00019903  0.0077006 0.0000
                      *** Initiating the SOSCF procedure ***
                           *** Shutting down DIIS ***
                      *** Re-Reading the Fockian *** 
                      *** Removing any level shift *** 
ITER      Energy       Delta-E        Grad      Rot      Max-DP    RMS-DP
  5  -1339.86090015  -0.0009210883  0.001747  0.001747  0.002793  0.000098
               *** Restarting incremental Fock matrix formation ***
  6  -1339.86108396  -0.0001838075  0.001458  0.004019  0.002201  0.000063
  7  -1339.86114377  -0.0000598111  0.000879  0.005288  0.002530  0.000063
  8  -1339.86116019  -0.0000164161  0.000357  0.000759  0.000768  0.000021
  9  -1339.86116479  -0.0000046017  0.000149  0.000379  0.000335  0.000009
 10  -1339.86116526  -0.0000004742  0.000066  0.000254  0.000142  0.000004
                 **** Energy Check signals convergence ****
              ***Rediagonalizing the Fockian in SOSCF/NRSCF***

               *****************************************************
               *                     SUCCESS                       *
               *           SCF CONVERGED AFTER  11 CYCLES          *
               *****************************************************

Setting up the final grid:

General Integration Accuracy     IntAcc      ...  4.670
Radial Grid Type                 RadialGrid  ... Gauss-Chebyshev
Angular Grid (max. acc.)         AngularGrid ... Lebedev-302
Angular grid pruning method      GridPruning ... 3 (G Style)
Weight generation scheme         WeightScheme... Becke
Basis function cutoff            BFCut       ...    1.0000e-10
Integration weight cutoff        WCut        ...    1.0000e-14
Grids for H and He will be reduced by one unit

# of grid points (after initial pruning)     ... 161752 (   0.0 sec)
# of grid points (after weights+screening)   ... 142404 (   0.1 sec)
nearest neighbour list constructed           ...    0.0 sec
Grid point re-assignment to atoms done       ...    0.0 sec
Grid point division into batches done        ...    0.5 sec
Reduced shell lists constructed in    0.5 sec

Total number of grid points                  ...   142404
Total number of batches                      ...     2242
Average number of points per batch           ...       63
Average number of grid points per atom       ...     4188
Average number of shells per batch           ...    67.34 (43.73%)
Average number of basis functions per batch  ...   130.62 (40.57%)
Average number of large shells per batch     ...    41.59 (61.76%)
Average number of large basis fcns per batch ...    84.56 (64.74%)
Maximum spatial batch extension              ...  11.52, 15.20, 15.97 au
Average spatial batch extension              ...   0.11,  0.11,  0.11 au

Final grid set up in    0.8 sec
Final integration                            ... done (   0.2 sec)
Change in XC energy                          ...     0.006993288
Integrated number of electrons               ...   134.000154642
Previous integrated no of electrons          ...   134.005185348

----------------
TOTAL SCF ENERGY
----------------

Total Energy       :        -1339.85417220 Eh          -36459.28558 eV

Components:
Nuclear Repulsion  :         1292.04323013 Eh           35158.28370 eV
Electronic Energy  :        -2631.89740233 Eh          -71617.56928 eV
One Electron Energy:        -4400.74983618 Eh         -119750.49104 eV
Two Electron Energy:         1768.85243385 Eh           48132.92176 eV

Virial components:
Potential Energy   :        -2670.97064761 Eh          -72680.80634 eV
Kinetic Energy     :         1331.11647541 Eh           36221.52076 eV
Virial Ratio       :            2.00656419


DFT components:
N(Alpha)           :       67.000077320862 electrons
N(Beta)            :       67.000077320862 electrons
N(Total)           :      134.000154641725 electrons
E(XC)              :      -94.171677105527 Eh       
DFET-embed. en.    :        0.000000000000 Eh       

---------------
SCF CONVERGENCE
---------------

  Last Energy change         ...   -2.2621e-07  Tolerance :   1.0000e-06
  Last MAX-Density change    ...    3.0173e-05  Tolerance :   1.0000e-05
  Last RMS-Density change    ...    6.3984e-07  Tolerance :   1.0000e-06
  Last Orbital Gradient      ...    6.5344e-06  Tolerance :   5.0000e-05
  Last Orbital Rotation      ...    1.9791e-05  Tolerance :   5.0000e-05

             **** THE GBW FILE WAS UPDATED (config_7098.gbw) ****
             **** DENSITY FILE WAS UPDATED (config_7098.scfp) ****
             **** ENERGY FILE WAS UPDATED (config_7098.en.tmp) ****
             **** THE GBW FILE WAS UPDATED (config_7098.gbw) ****
             **** DENSITY FILE WAS UPDATED (config_7098.scfp) ****
----------------
ORBITAL ENERGIES
----------------

  NO   OCC          E(Eh)            E(eV) 
   0   2.0000     -88.967779     -2420.9364 
   1   2.0000     -88.966572     -2420.9035 
   2   2.0000     -10.341611      -281.4095 
   3   2.0000     -10.330002      -281.0936 
   4   2.0000     -10.319847      -280.8173 
   5   2.0000     -10.317282      -280.7475 
   6   2.0000     -10.306320      -280.4492 
   7   2.0000     -10.305612      -280.4300 
   8   2.0000     -10.303258      -280.3659 
   9   2.0000     -10.302883      -280.3557 
  10   2.0000     -10.293769      -280.1077 
  11   2.0000     -10.293396      -280.0976 
  12   2.0000     -10.292827      -280.0821 
  13   2.0000     -10.285226      -279.8752 
  14   2.0000     -10.277045      -279.6526 
  15   2.0000     -10.273705      -279.5617 
  16   2.0000      -8.081197      -219.9005 
  17   2.0000      -8.080837      -219.8907 
  18   2.0000      -6.039896      -164.3539 
  19   2.0000      -6.039501      -164.3432 
  20   2.0000      -6.035721      -164.2403 
  21   2.0000      -6.035622      -164.2376 
  22   2.0000      -6.031737      -164.1319 
  23   2.0000      -6.031485      -164.1250 
  24   2.0000      -1.001005       -27.2387 
  25   2.0000      -0.976238       -26.5648 
  26   2.0000      -0.924488       -25.1566 
  27   2.0000      -0.906183       -24.6585 
  28   2.0000      -0.863213       -23.4892 
  29   2.0000      -0.850886       -23.1538 
  30   2.0000      -0.838142       -22.8070 
  31   2.0000      -0.813838       -22.1457 
  32   2.0000      -0.784714       -21.3532 
  33   2.0000      -0.771737       -21.0000 
  34   2.0000      -0.707130       -19.2420 
  35   2.0000      -0.694190       -18.8899 
  36   2.0000      -0.686331       -18.6760 
  37   2.0000      -0.665576       -18.1112 
  38   2.0000      -0.635236       -17.2856 
  39   2.0000      -0.617282       -16.7971 
  40   2.0000      -0.602545       -16.3961 
  41   2.0000      -0.572725       -15.5846 
  42   2.0000      -0.566035       -15.4026 
  43   2.0000      -0.557103       -15.1596 
  44   2.0000      -0.538211       -14.6455 
  45   2.0000      -0.522227       -14.2105 
  46   2.0000      -0.519427       -14.1343 
  47   2.0000      -0.508630       -13.8405 
  48   2.0000      -0.498829       -13.5738 
  49   2.0000      -0.488505       -13.2929 
  50   2.0000      -0.486156       -13.2290 
  51   2.0000      -0.478613       -13.0237 
  52   2.0000      -0.468675       -12.7533 
  53   2.0000      -0.464181       -12.6310 
  54   2.0000      -0.460923       -12.5424 
  55   2.0000      -0.449414       -12.2292 
  56   2.0000      -0.439706       -11.9650 
  57   2.0000      -0.438876       -11.9424 
  58   2.0000      -0.435672       -11.8552 
  59   2.0000      -0.424674       -11.5560 
  60   2.0000      -0.422081       -11.4854 
  61   2.0000      -0.412230       -11.2173 
  62   2.0000      -0.402721       -10.9586 
  63   2.0000      -0.340587        -9.2678 
  64   2.0000      -0.332295        -9.0422 
  65   2.0000      -0.328106        -8.9282 
  66   2.0000      -0.304066        -8.2741 
  67   0.0000       0.034762         0.9459 
  68   0.0000       0.063530         1.7287 
  69   0.0000       0.109907         2.9907 
  70   0.0000       0.112429         3.0593 
  71   0.0000       0.124229         3.3805 
  72   0.0000       0.131124         3.5681 
  73   0.0000       0.138052         3.7566 
  74   0.0000       0.149149         4.0586 
  75   0.0000       0.157101         4.2749 
  76   0.0000       0.167457         4.5567 
  77   0.0000       0.175153         4.7661 
  78   0.0000       0.184559         5.0221 
  79   0.0000       0.192184         5.2296 
  80   0.0000       0.195504         5.3199 
  81   0.0000       0.202484         5.5099 
  82   0.0000       0.211309         5.7500 
  83   0.0000       0.216058         5.8792 
  84   0.0000       0.223127         6.0716 
  85   0.0000       0.224826         6.1178 
  86   0.0000       0.234404         6.3785 
  87   0.0000       0.237468         6.4618 
  88   0.0000       0.239888         6.5277 
  89   0.0000       0.247843         6.7442 
  90   0.0000       0.256610         6.9827 
  91   0.0000       0.264522         7.1980 
  92   0.0000       0.268984         7.3194 
  93   0.0000       0.298579         8.1247 
  94   0.0000       0.302281         8.2255 
  95   0.0000       0.307826         8.3764 
  96   0.0000       0.312881         8.5139 
  97   0.0000       0.339208         9.2303 
  98   0.0000       0.350488         9.5373 
  99   0.0000       0.365997         9.9593 
 100   0.0000       0.373103        10.1527 
 101   0.0000       0.391966        10.6659 
 102   0.0000       0.413272        11.2457 
 103   0.0000       0.422700        11.5023 
 104   0.0000       0.433923        11.8077 
 105   0.0000       0.451239        12.2788 
 106   0.0000       0.468769        12.7559 
 107   0.0000       0.477988        13.0067 
 108   0.0000       0.486760        13.2454 
 109   0.0000       0.497270        13.5314 
 110   0.0000       0.502972        13.6866 
 111   0.0000       0.504889        13.7387 
 112   0.0000       0.512736        13.9523 
 113   0.0000       0.519896        14.1471 
 114   0.0000       0.525346        14.2954 
 115   0.0000       0.536150        14.5894 
 116   0.0000       0.540217        14.7001 
 117   0.0000       0.552903        15.0453 
 118   0.0000       0.557487        15.1700 
 119   0.0000       0.580036        15.7836 
 120   0.0000       0.581471        15.8226 
 121   0.0000       0.590491        16.0681 
 122   0.0000       0.593010        16.1366 
 123   0.0000       0.603665        16.4266 
 124   0.0000       0.611692        16.6450 
 125   0.0000       0.628013        17.0891 
 126   0.0000       0.643293        17.5049 
 127   0.0000       0.649839        17.6830 
 128   0.0000       0.652132        17.7454 
 129   0.0000       0.663630        18.0583 
 130   0.0000       0.668427        18.1888 
 131   0.0000       0.677744        18.4423 
 132   0.0000       0.692867        18.8539 
 133   0.0000       0.695517        18.9260 
 134   0.0000       0.702424        19.1139 
 135   0.0000       0.709398        19.3037 
 136   0.0000       0.716125        19.4867 
 137   0.0000       0.724871        19.7248 
 138   0.0000       0.729394        19.8478 
 139   0.0000       0.738167        20.0865 
 140   0.0000       0.739509        20.1231 
 141   0.0000       0.744522        20.2595 
 142   0.0000       0.746691        20.3185 
 143   0.0000       0.753073        20.4922 
 144   0.0000       0.759540        20.6681 
 145   0.0000       0.766668        20.8621 
 146   0.0000       0.771381        20.9903 
 147   0.0000       0.773620        21.0513 
 148   0.0000       0.778603        21.1869 
 149   0.0000       0.782811        21.3014 
 150   0.0000       0.789052        21.4712 
 151   0.0000       0.791339        21.5334 
 152   0.0000       0.796545        21.6751 
 153   0.0000       0.801168        21.8009 
 154   0.0000       0.802558        21.8387 
 155   0.0000       0.805852        21.9284 
 156   0.0000       0.807884        21.9837 
 157   0.0000       0.813766        22.1437 
 158   0.0000       0.816725        22.2242 
 159   0.0000       0.819712        22.3055 
 160   0.0000       0.824821        22.4445 
 161   0.0000       0.833829        22.6897 
 162   0.0000       0.835289        22.7294 
 163   0.0000       0.849495        23.1159 
 164   0.0000       0.857521        23.3343 
 165   0.0000       0.863438        23.4953 
 166   0.0000       0.866429        23.5767 
 167   0.0000       0.872511        23.7422 
 168   0.0000       0.881422        23.9847 
 169   0.0000       0.883837        24.0504 
 170   0.0000       0.909724        24.7549 
 171   0.0000       0.914860        24.8946 
 172   0.0000       0.925253        25.1774 
 173   0.0000       0.939679        25.5700 
 174   0.0000       0.954805        25.9816 
 175   0.0000       0.971359        26.4320 
 176   0.0000       0.987190        26.8628 
 177   0.0000       1.007603        27.4183 
 178   0.0000       1.021507        27.7966 
 179   0.0000       1.038569        28.2609 
 180   0.0000       1.056326        28.7441 
 181   0.0000       1.068772        29.0828 
 182   0.0000       1.072039        29.1717 
 183   0.0000       1.108334        30.1593 
 184   0.0000       1.126611        30.6566 
 185   0.0000       1.135869        30.9086 
 186   0.0000       1.144262        31.1369 
 187   0.0000       1.156853        31.4796 
 188   0.0000       1.170561        31.8526 
 189   0.0000       1.195993        32.5446 
 190   0.0000       1.221187        33.2302 
 191   0.0000       1.228244        33.4222 
 192   0.0000       1.241785        33.7907 
 193   0.0000       1.264458        34.4076 
 194   0.0000       1.276863        34.7452 
 195   0.0000       1.295270        35.2461 
 196   0.0000       1.318861        35.8880 
 197   0.0000       1.326411        36.0935 
 198   0.0000       1.340263        36.4704 
 199   0.0000       1.351464        36.7752 
 200   0.0000       1.383969        37.6597 
 201   0.0000       1.411202        38.4008 
 202   0.0000       1.425223        38.7823 
 203   0.0000       1.436717        39.0950 
 204   0.0000       1.451544        39.4985 
 205   0.0000       1.462434        39.7949 
 206   0.0000       1.465319        39.8734 
 207   0.0000       1.492251        40.6062 
 208   0.0000       1.497546        40.7503 
 209   0.0000       1.547238        42.1025 
 210   0.0000       1.561337        42.4861 
 211   0.0000       1.602977        43.6192 
 212   0.0000       1.616836        43.9963 
 213   0.0000       1.621111        44.1127 
 214   0.0000       1.630799        44.3763 
 215   0.0000       1.674595        45.5680 
 216   0.0000       1.678027        45.6614 
 217   0.0000       1.691556        46.0296 
 218   0.0000       1.738836        47.3161 
 219   0.0000       1.776188        48.3325 
 220   0.0000       1.788668        48.6721 
 221   0.0000       1.795331        48.8535 
 222   0.0000       1.808702        49.2173 
 223   0.0000       1.812823        49.3294 
 224   0.0000       1.816982        49.4426 
 225   0.0000       1.831061        49.8257 
 226   0.0000       1.841438        50.1081 
 227   0.0000       1.847584        50.2753 
 228   0.0000       1.854434        50.4617 
 229   0.0000       1.864026        50.7227 
 230   0.0000       1.869440        50.8700 
 231   0.0000       1.874780        51.0153 
 232   0.0000       1.881951        51.2105 
 233   0.0000       1.887932        51.3732 
 234   0.0000       1.904425        51.8220 
 235   0.0000       1.914385        52.0931 
 236   0.0000       1.919452        52.2310 
 237   0.0000       1.924731        52.3746 
 238   0.0000       1.937460        52.7210 
 239   0.0000       1.939233        52.7692 
 240   0.0000       1.944207        52.9046 
 241   0.0000       1.950973        53.0887 
 242   0.0000       1.961586        53.3775 
 243   0.0000       1.969524        53.5935 
 244   0.0000       1.979431        53.8630 
 245   0.0000       1.989520        54.1376 
 246   0.0000       2.002845        54.5002 
 247   0.0000       2.008313        54.6490 
 248   0.0000       2.016091        54.8606 
 249   0.0000       2.020522        54.9812 
 250   0.0000       2.025321        55.1118 
 251   0.0000       2.039712        55.5034 
 252   0.0000       2.044450        55.6323 
 253   0.0000       2.054141        55.8960 
 254   0.0000       2.072684        56.4006 
 255   0.0000       2.090663        56.8898 
 256   0.0000       2.095834        57.0305 
 257   0.0000       2.115381        57.5624 
 258   0.0000       2.138397        58.1887 
 259   0.0000       2.150858        58.5278 
 260   0.0000       2.164314        58.8940 
 261   0.0000       2.177331        59.2482 
 262   0.0000       2.187815        59.5335 
 263   0.0000       2.199226        59.8440 
 264   0.0000       2.218078        60.3570 
 265   0.0000       2.221817        60.4587 
 266   0.0000       2.244782        61.0836 
 267   0.0000       2.259203        61.4760 
 268   0.0000       2.263449        61.5916 
 269   0.0000       2.282367        62.1064 
 270   0.0000       2.307241        62.7832 
 271   0.0000       2.316645        63.0391 
 272   0.0000       2.361196        64.2514 
 273   0.0000       2.367144        64.4133 
 274   0.0000       2.378781        64.7299 
 275   0.0000       2.420363        65.8614 
 276   0.0000       2.423846        65.9562 
 277   0.0000       2.438757        66.3620 
 278   0.0000       2.454727        66.7965 
 279   0.0000       2.478147        67.4338 
 280   0.0000       2.485382        67.6307 
 281   0.0000       2.503266        68.1173 
 282   0.0000       2.505091        68.1670 
 283   0.0000       2.510292        68.3085 
 284   0.0000       2.524392        68.6922 
 285   0.0000       2.544206        69.2314 
 286   0.0000       2.551263        69.4234 
 287   0.0000       2.575500        70.0829 
 288   0.0000       2.606380        70.9232 
 289   0.0000       2.619182        71.2716 
 290   0.0000       2.634043        71.6759 
 291   0.0000       2.651012        72.1377 
 292   0.0000       2.672944        72.7345 
 293   0.0000       2.694999        73.3347 
 294   0.0000       2.706055        73.6355 
 295   0.0000       2.721996        74.0693 
 296   0.0000       2.749140        74.8079 
 297   0.0000       2.750910        74.8561 
 298   0.0000       2.769173        75.3530 
 299   0.0000       2.800611        76.2085 
 300   0.0000       2.831462        77.0480 
 301   0.0000       2.856324        77.7245 
 302   0.0000       2.880998        78.3959 
 303   0.0000       2.900599        78.9293 
 304   0.0000       2.923030        79.5397 
 305   0.0000       2.973603        80.9158 
 306   0.0000       2.980864        81.1134 
 307   0.0000       2.989326        81.3437 
 308   0.0000       3.001727        81.6812 
 309   0.0000       3.014863        82.0386 
 310   0.0000       3.041934        82.7752 
 311   0.0000       3.060921        83.2919 
 312   0.0000       3.078107        83.7595 
 313   0.0000       3.112019        84.6823 
 314   0.0000       3.132171        85.2307 
 315   0.0000       3.164106        86.0997 
 316   0.0000       3.186318        86.7041 
 317   0.0000       3.212448        87.4152 
 318   0.0000       3.229180        87.8705 
 319   0.0000       3.281645        89.2981 
 320   0.0000       3.317229        90.2664 
 321   0.0000       3.434449        93.4561 

                    ********************************
                    * MULLIKEN POPULATION ANALYSIS *
                    ********************************

-----------------------
MULLIKEN ATOMIC CHARGES
-----------------------
   0 S :    0.098604
   1 C :   -0.111277
   2 C :   -0.118753
   3 C :    0.065135
   4 C :   -0.184737
   5 H :    0.021828
   6 C :    0.046182
   7 H :    0.036814
   8 H :    0.037872
   9 C :   -0.101202
  10 H :    0.027112
  11 H :    0.027579
  12 C :   -0.064853
  13 H :    0.038814
  14 H :    0.068680
  15 H :    0.028680
  16 S :    0.112087
  17 C :   -0.081883
  18 C :   -0.015644
  19 C :   -0.010971
  20 C :   -0.144271
  21 H :    0.001159
  22 C :    0.023585
  23 H :    0.023581
  24 H :    0.022674
  25 C :   -0.036683
  26 H :    0.026654
  27 H :    0.018468
  28 C :   -0.032839
  29 H :    0.019984
  30 H :    0.016830
  31 H :    0.033940
  32 H :    0.047674
  33 H :    0.059174
Sum of atomic charges:    0.0000000

--------------------------------
MULLIKEN REDUCED ORBITAL CHARGES
--------------------------------
  0 S s       :     5.853480  s :     5.853480
      pz      :     3.319952  p :     9.953487
      px      :     3.209045
      py      :     3.424490
      dz2     :     0.017996  d :     0.094429
      dxz     :     0.027481
      dyz     :     0.014777
      dx2y2   :     0.016983
      dxy     :     0.017192
  1 C s       :     3.182781  s :     3.182781
      pz      :     0.971014  p :     2.895733
      px      :     0.945417
      py      :     0.979302
      dz2     :     0.007660  d :     0.032762
      dxz     :     0.008601
      dyz     :     0.007251
      dx2y2   :     0.003963
      dxy     :     0.005287
  2 C s       :     3.101217  s :     3.101217
      pz      :     0.976860  p :     2.974946
      px      :     0.982150
      py      :     1.015936
      dz2     :     0.010702  d :     0.042590
      dxz     :     0.009567
      dyz     :     0.008207
      dx2y2   :     0.006934
      dxy     :     0.007181
  3 C s       :     3.178797  s :     3.178797
      pz      :     0.858257  p :     2.723323
      px      :     0.920636
      py      :     0.944430
      dz2     :     0.007368  d :     0.032745
      dxz     :     0.007394
      dyz     :     0.005281
      dx2y2   :     0.007570
      dxy     :     0.005132
  4 C s       :     3.115253  s :     3.115253
      pz      :     0.956101  p :     3.028320
      px      :     1.024189
      py      :     1.048029
      dz2     :     0.009543  d :     0.041164
      dxz     :     0.010616
      dyz     :     0.006615
      dx2y2   :     0.007316
      dxy     :     0.007073
  5 H s       :     0.954936  s :     0.954936
      pz      :     0.013454  p :     0.023236
      px      :     0.005436
      py      :     0.004346
  6 C s       :     3.016699  s :     3.016699
      pz      :     0.980384  p :     2.903457
      px      :     0.921501
      py      :     1.001572
      dz2     :     0.004773  d :     0.033661
      dxz     :     0.008443
      dyz     :     0.006893
      dx2y2   :     0.004613
      dxy     :     0.008939
  7 H s       :     0.939779  s :     0.939779
      pz      :     0.005067  p :     0.023407
      px      :     0.007255
      py      :     0.011085
  8 H s       :     0.941504  s :     0.941504
      pz      :     0.005506  p :     0.020624
      px      :     0.010629
      py      :     0.004489
  9 C s       :     3.080400  s :     3.080400
      pz      :     0.971418  p :     2.985760
      px      :     1.009318
      py      :     1.005024
      dz2     :     0.003552  d :     0.035043
      dxz     :     0.010951
      dyz     :     0.008471
      dx2y2   :     0.004072
      dxy     :     0.007997
 10 H s       :     0.951144  s :     0.951144
      pz      :     0.006786  p :     0.021744
      px      :     0.007853
      py      :     0.007105
 11 H s       :     0.949082  s :     0.949082
      pz      :     0.008561  p :     0.023338
      px      :     0.009647
      py      :     0.005131
 12 C s       :     3.049743  s :     3.049743
      pz      :     0.995584  p :     2.988350
      px      :     0.986991
      py      :     1.005775
      dz2     :     0.002501  d :     0.026760
      dxz     :     0.008217
      dyz     :     0.006534
      dx2y2   :     0.002847
      dxy     :     0.006662
 13 H s       :     0.937057  s :     0.937057
      pz      :     0.011182  p :     0.024129
      px      :     0.007021
      py      :     0.005926
 14 H s       :     0.909510  s :     0.909510
      pz      :     0.007436  p :     0.021810
      px      :     0.006873
      py      :     0.007501
 15 H s       :     0.948849  s :     0.948849
      pz      :     0.007930  p :     0.022471
      px      :     0.008810
      py      :     0.005730
 16 S s       :     5.845470  s :     5.845470
      pz      :     3.487187  p :     9.937702
      px      :     3.027475
      py      :     3.423041
      dz2     :     0.011539  d :     0.104741
      dxz     :     0.032211
      dyz     :     0.015856
      dx2y2   :     0.022209
      dxy     :     0.022926
 17 C s       :     3.146743  s :     3.146743
      pz      :     0.996437  p :     2.899947
      px      :     0.940341
      py      :     0.963170
      dz2     :     0.008461  d :     0.035193
      dxz     :     0.007488
      dyz     :     0.005830
      dx2y2   :     0.006843
      dxy     :     0.006571
 18 C s       :     3.177330  s :     3.177330
      pz      :     0.916893  p :     2.804877
      px      :     0.948076
      py      :     0.939908
      dz2     :     0.006713  d :     0.033437
      dxz     :     0.007677
      dyz     :     0.005757
      dx2y2   :     0.005774
      dxy     :     0.007515
 19 C s       :     3.054148  s :     3.054148
      pz      :     0.948034  p :     2.913089
      px      :     0.973496
      py      :     0.991560
      dz2     :     0.010041  d :     0.043734
      dxz     :     0.009275
      dyz     :     0.007877
      dx2y2   :     0.008795
      dxy     :     0.007745
 20 C s       :     3.075422  s :     3.075422
      pz      :     1.037532  p :     3.025702
      px      :     0.914905
      py      :     1.073266
      dz2     :     0.008891  d :     0.043146
      dxz     :     0.010337
      dyz     :     0.005732
      dx2y2   :     0.009133
      dxy     :     0.009052
 21 H s       :     0.973914  s :     0.973914
      pz      :     0.009054  p :     0.024927
      px      :     0.005596
      py      :     0.010277
 22 C s       :     2.974133  s :     2.974133
      pz      :     0.991227  p :     2.962987
      px      :     0.978752
      py      :     0.993008
      dz2     :     0.006296  d :     0.039295
      dxz     :     0.010193
      dyz     :     0.007101
      dx2y2   :     0.006158
      dxy     :     0.009547
 23 H s       :     0.954739  s :     0.954739
      pz      :     0.010486  p :     0.021679
      px      :     0.005859
      py      :     0.005334
 24 H s       :     0.957236  s :     0.957236
      pz      :     0.004602  p :     0.020090
      px      :     0.006072
      py      :     0.009416
 25 C s       :     3.012151  s :     3.012151
      pz      :     1.019007  p :     2.983382
      px      :     0.966863
      py      :     0.997512
      dz2     :     0.008002  d :     0.041150
      dxz     :     0.010566
      dyz     :     0.005494
      dx2y2   :     0.006042
      dxy     :     0.011045
 26 H s       :     0.949178  s :     0.949178
      pz      :     0.012007  p :     0.024168
      px      :     0.006994
      py      :     0.005166
 27 H s       :     0.959294  s :     0.959294
      pz      :     0.004354  p :     0.022239
      px      :     0.007295
      py      :     0.010590
 28 C s       :     2.983729  s :     2.983729
      pz      :     1.003902  p :     3.019734
      px      :     0.999042
      py      :     1.016790
      dz2     :     0.003915  d :     0.029376
      dxz     :     0.007468
      dyz     :     0.007658
      dx2y2   :     0.001551
      dxy     :     0.008785
 29 H s       :     0.954930  s :     0.954930
      pz      :     0.005917  p :     0.025086
      px      :     0.010172
      py      :     0.008997
 30 H s       :     0.957719  s :     0.957719
      pz      :     0.009592  p :     0.025451
      px      :     0.007064
      py      :     0.008795
 31 H s       :     0.943675  s :     0.943675
      pz      :     0.006220  p :     0.022385
      px      :     0.007082
      py      :     0.009082
 32 H s       :     0.928652  s :     0.928652
      pz      :     0.005207  p :     0.023675
      px      :     0.011892
      py      :     0.006577
 33 H s       :     0.916852  s :     0.916852
      pz      :     0.004406  p :     0.023974
      px      :     0.014389
      py      :     0.005179


                     *******************************
                     * LOEWDIN POPULATION ANALYSIS *
                     *******************************

----------------------
LOEWDIN ATOMIC CHARGES
----------------------
   0 S :    0.363421
   1 C :   -0.185049
   2 C :   -0.065402
   3 C :   -0.058114
   4 C :   -0.175743
   5 H :    0.031191
   6 C :   -0.031300
   7 H :    0.028490
   8 H :    0.039164
   9 C :   -0.043556
  10 H :    0.025810
  11 H :    0.015338
  12 C :   -0.069625
  13 H :    0.025143
  14 H :    0.037914
  15 H :    0.026717
  16 S :    0.398797
  17 C :   -0.183616
  18 C :   -0.064720
  19 C :   -0.048562
  20 C :   -0.194091
  21 H :    0.022046
  22 C :   -0.043188
  23 H :    0.033216
  24 H :    0.033811
  25 C :   -0.042076
  26 H :    0.021070
  27 H :    0.031538
  28 C :   -0.068207
  29 H :    0.025706
  30 H :    0.020513
  31 H :    0.030161
  32 H :    0.029838
  33 H :    0.033364

-------------------------------
LOEWDIN REDUCED ORBITAL CHARGES
-------------------------------
  0 S s       :     5.547149  s :     5.547149
      pz      :     3.352823  p :     9.974093
      px      :     3.204945
      py      :     3.416326
      dz2     :     0.021031  d :     0.115337
      dxz     :     0.035055
      dyz     :     0.016675
      dx2y2   :     0.020632
      dxy     :     0.021943
  1 C s       :     2.946175  s :     2.946175
      pz      :     1.068475  p :     3.161985
      px      :     1.043348
      py      :     1.050162
      dz2     :     0.020085  d :     0.076889
      dxz     :     0.020714
      dyz     :     0.016750
      dx2y2   :     0.008430
      dxy     :     0.010910
  2 C s       :     2.870743  s :     2.870743
      pz      :     1.063779  p :     3.090789
      px      :     1.024120
      py      :     1.002890
      dz2     :     0.029200  d :     0.103870
      dxz     :     0.023974
      dyz     :     0.019198
      dx2y2   :     0.014332
      dxy     :     0.017166
  3 C s       :     2.879228  s :     2.879228
      pz      :     1.045624  p :     3.093487
      px      :     1.025950
      py      :     1.021913
      dz2     :     0.020040  d :     0.085399
      dxz     :     0.019195
      dyz     :     0.015571
      dx2y2   :     0.017495
      dxy     :     0.013097
  4 C s       :     2.931868  s :     2.931868
      pz      :     1.034951  p :     3.149044
      px      :     1.041912
      py      :     1.072181
      dz2     :     0.022123  d :     0.094831
      dxz     :     0.024205
      dyz     :     0.016631
      dx2y2   :     0.015398
      dxy     :     0.016474
  5 H s       :     0.899700  s :     0.899700
      pz      :     0.038764  p :     0.069108
      px      :     0.017052
      py      :     0.013292
  6 C s       :     2.843104  s :     2.843104
      pz      :     1.033141  p :     3.104025
      px      :     1.027756
      py      :     1.043128
      dz2     :     0.010737  d :     0.084171
      dxz     :     0.021595
      dyz     :     0.018160
      dx2y2   :     0.010616
      dxy     :     0.023063
  7 H s       :     0.900666  s :     0.900666
      pz      :     0.016973  p :     0.070844
      px      :     0.021062
      py      :     0.032809
  8 H s       :     0.902379  s :     0.902379
      pz      :     0.016669  p :     0.058458
      px      :     0.028851
      py      :     0.012937
  9 C s       :     2.850274  s :     2.850274
      pz      :     1.018635  p :     3.110456
      px      :     1.049946
      py      :     1.041875
      dz2     :     0.007695  d :     0.082826
      dxz     :     0.026597
      dyz     :     0.020530
      dx2y2   :     0.008170
      dxy     :     0.019835
 10 H s       :     0.911982  s :     0.911982
      pz      :     0.020580  p :     0.062208
      px      :     0.020816
      py      :     0.020811
 11 H s       :     0.911870  s :     0.911870
      pz      :     0.027381  p :     0.072793
      px      :     0.028261
      py      :     0.017150
 12 C s       :     2.852419  s :     2.852419
      pz      :     1.054235  p :     3.149459
      px      :     1.041062
      py      :     1.054163
      dz2     :     0.006308  d :     0.067746
      dxz     :     0.021128
      dyz     :     0.016468
      dx2y2   :     0.005662
      dxy     :     0.018180
 13 H s       :     0.904923  s :     0.904923
      pz      :     0.032146  p :     0.069935
      px      :     0.020130
      py      :     0.017659
 14 H s       :     0.902143  s :     0.902143
      pz      :     0.019797  p :     0.059943
      px      :     0.018437
      py      :     0.021709
 15 H s       :     0.911049  s :     0.911049
      pz      :     0.020579  p :     0.062234
      px      :     0.024968
      py      :     0.016687
 16 S s       :     5.515446  s :     5.515446
      pz      :     3.490749  p :     9.956739
      px      :     3.042172
      py      :     3.423819
      dz2     :     0.012334  d :     0.129017
      dxz     :     0.040980
      dyz     :     0.018118
      dx2y2   :     0.028056
      dxy     :     0.029530
 17 C s       :     2.930093  s :     2.930093
      pz      :     1.070555  p :     3.170817
      px      :     1.060189
      py      :     1.040072
      dz2     :     0.018682  d :     0.082706
      dxz     :     0.019424
      dyz     :     0.013843
      dx2y2   :     0.015899
      dxy     :     0.014857
 18 C s       :     2.868619  s :     2.868619
      pz      :     1.044240  p :     3.108610
      px      :     1.027312
      py      :     1.037059
      dz2     :     0.016909  d :     0.087491
      dxz     :     0.020883
      dyz     :     0.015823
      dx2y2   :     0.014821
      dxy     :     0.019055
 19 C s       :     2.854834  s :     2.854834
      pz      :     1.035724  p :     3.082976
      px      :     1.030648
      py      :     1.016603
      dz2     :     0.024540  d :     0.110753
      dxz     :     0.023549
      dyz     :     0.021207
      dx2y2   :     0.021545
      dxy     :     0.019911
 20 C s       :     2.908809  s :     2.908809
      pz      :     1.086141  p :     3.182100
      px      :     1.007527
      py      :     1.088433
      dz2     :     0.020777  d :     0.103182
      dxz     :     0.024741
      dyz     :     0.015177
      dx2y2   :     0.019690
      dxy     :     0.022796
 21 H s       :     0.902251  s :     0.902251
      pz      :     0.026745  p :     0.075704
      px      :     0.018637
      py      :     0.030322
 22 C s       :     2.827174  s :     2.827174
      pz      :     1.028089  p :     3.116876
      px      :     1.040925
      py      :     1.047862
      dz2     :     0.015492  d :     0.099137
      dxz     :     0.027378
      dyz     :     0.017681
      dx2y2   :     0.013029
      dxy     :     0.025557
 23 H s       :     0.904446  s :     0.904446
      pz      :     0.029720  p :     0.062339
      px      :     0.017026
      py      :     0.015592
 24 H s       :     0.911097  s :     0.911097
      pz      :     0.012546  p :     0.055092
      px      :     0.016979
      py      :     0.025567
 25 C s       :     2.811072  s :     2.811072
      pz      :     1.052509  p :     3.128438
      px      :     1.030886
      py      :     1.045043
      dz2     :     0.019669  d :     0.102566
      dxz     :     0.028226
      dyz     :     0.012775
      dx2y2   :     0.012672
      dxy     :     0.029223
 26 H s       :     0.906309  s :     0.906309
      pz      :     0.035140  p :     0.072622
      px      :     0.021044
      py      :     0.016438
 27 H s       :     0.906853  s :     0.906853
      pz      :     0.012501  p :     0.061608
      px      :     0.020276
      py      :     0.028831
 28 C s       :     2.825878  s :     2.825878
      pz      :     1.054334  p :     3.168217
      px      :     1.051330
      py      :     1.062553
      dz2     :     0.008772  d :     0.074111
      dxz     :     0.020125
      dyz     :     0.019268
      dx2y2   :     0.003576
      dxy     :     0.022370
 29 H s       :     0.903327  s :     0.903327
      pz      :     0.017277  p :     0.070967
      px      :     0.028397
      py      :     0.025293
 30 H s       :     0.907583  s :     0.907583
      pz      :     0.027477  p :     0.071904
      px      :     0.019856
      py      :     0.024571
 31 H s       :     0.909440  s :     0.909440
      pz      :     0.017403  p :     0.060399
      px      :     0.019115
      py      :     0.023881
 32 H s       :     0.896730  s :     0.896730
      pz      :     0.015442  p :     0.073433
      px      :     0.036375
      py      :     0.021616
 33 H s       :     0.892633  s :     0.892633
      pz      :     0.014453  p :     0.074002
      px      :     0.041834
      py      :     0.017716


                      *****************************
                      * MAYER POPULATION ANALYSIS *
                      *****************************

  NA   - Mulliken gross atomic population
  ZA   - Total nuclear charge
  QA   - Mulliken gross atomic charge
  VA   - Mayer's total valence
  BVA  - Mayer's bonded valence
  FA   - Mayer's free valence

  ATOM       NA         ZA         QA         VA         BVA        FA
  0 S     15.9014    16.0000     0.0986     2.4320     2.4320    -0.0000
  1 C      6.1113     6.0000    -0.1113     3.8596     3.8596     0.0000
  2 C      6.1188     6.0000    -0.1188     4.0071     4.0071     0.0000
  3 C      5.9349     6.0000     0.0651     3.9000     3.9000     0.0000
  4 C      6.1847     6.0000    -0.1847     3.9066     3.9066     0.0000
  5 H      0.9782     1.0000     0.0218     1.0005     1.0005     0.0000
  6 C      5.9538     6.0000     0.0462     3.9694     3.9694    -0.0000
  7 H      0.9632     1.0000     0.0368     0.9825     0.9825     0.0000
  8 H      0.9621     1.0000     0.0379     0.9877     0.9877     0.0000
  9 C      6.1012     6.0000    -0.1012     4.0437     4.0437     0.0000
 10 H      0.9729     1.0000     0.0271     0.9740     0.9740     0.0000
 11 H      0.9724     1.0000     0.0276     0.9834     0.9834    -0.0000
 12 C      6.0649     6.0000    -0.0649     3.9762     3.9762    -0.0000
 13 H      0.9612     1.0000     0.0388     0.9871     0.9871     0.0000
 14 H      0.9313     1.0000     0.0687     0.9889     0.9889     0.0000
 15 H      0.9713     1.0000     0.0287     0.9891     0.9891     0.0000
 16 S     15.8879    16.0000     0.1121     2.4525     2.4525     0.0000
 17 C      6.0819     6.0000    -0.0819     3.8301     3.8301     0.0000
 18 C      6.0156     6.0000    -0.0156     3.9561     3.9561     0.0000
 19 C      6.0110     6.0000    -0.0110     4.0504     4.0504     0.0000
 20 C      6.1443     6.0000    -0.1443     3.8906     3.8906     0.0000
 21 H      0.9988     1.0000     0.0012     0.9982     0.9982     0.0000
 22 C      5.9764     6.0000     0.0236     3.9677     3.9677    -0.0000
 23 H      0.9764     1.0000     0.0236     0.9844     0.9844     0.0000
 24 H      0.9773     1.0000     0.0227     0.9965     0.9965     0.0000
 25 C      6.0367     6.0000    -0.0367     4.0986     4.0986    -0.0000
 26 H      0.9733     1.0000     0.0267     0.9899     0.9899    -0.0000
 27 H      0.9815     1.0000     0.0185     0.9774     0.9774    -0.0000
 28 C      6.0328     6.0000    -0.0328     3.9970     3.9970     0.0000
 29 H      0.9800     1.0000     0.0200     0.9871     0.9871    -0.0000
 30 H      0.9832     1.0000     0.0168     0.9907     0.9907     0.0000
 31 H      0.9661     1.0000     0.0339     0.9928     0.9928    -0.0000
 32 H      0.9523     1.0000     0.0477     1.0076     1.0076     0.0000
 33 H      0.9408     1.0000     0.0592     0.9961     0.9961    -0.0000

  Mayer bond orders larger than 0.100000
B(  0-S ,  1-C ) :   1.1183 B(  0-S ,  4-C ) :   1.1304 B(  1-C ,  2-C ) :   1.6480 
B(  1-C , 32-H ) :   0.9616 B(  2-C ,  3-C ) :   1.2073 B(  2-C ,  6-C ) :   1.0233 
B(  3-C ,  4-C ) :   1.6153 B(  3-C ,  5-H ) :   0.9831 B(  4-C , 20-C ) :   0.9960 
B(  6-C ,  7-H ) :   0.9376 B(  6-C ,  8-H ) :   0.9521 B(  6-C ,  9-C ) :   1.0569 
B(  9-C , 10-H ) :   0.9586 B(  9-C , 11-H ) :   0.9622 B(  9-C , 12-C ) :   1.0590 
B( 12-C , 13-H ) :   0.9743 B( 12-C , 14-H ) :   0.9740 B( 12-C , 15-H ) :   0.9728 
B( 16-S , 17-C ) :   1.1512 B( 16-S , 20-C ) :   1.1182 B( 17-C , 18-C ) :   1.6297 
B( 17-C , 33-H ) :   0.9655 B( 18-C , 19-C ) :   1.2069 B( 18-C , 21-H ) :   0.9961 
B( 19-C , 20-C ) :   1.6608 B( 19-C , 22-C ) :   1.0485 B( 22-C , 23-H ) :   0.9328 
B( 22-C , 24-H ) :   0.9192 B( 22-C , 25-C ) :   1.0869 B( 25-C , 26-H ) :   0.9535 
B( 25-C , 27-H ) :   0.9409 B( 25-C , 28-C ) :   1.0889 B( 28-C , 29-H ) :   0.9696 
B( 28-C , 30-H ) :   0.9705 B( 28-C , 31-H ) :   0.9720 

-------
TIMINGS
-------

Total SCF time: 0 days 0 hours 0 min 20 sec 

Total time                  ....      20.480 sec
Sum of individual times     ....      19.601 sec  ( 95.7%)

Fock matrix formation       ....      17.952 sec  ( 87.7%)
  XC integration            ....       1.496 sec  (  8.3% of F)
    Basis function eval.    ....       0.147 sec  (  9.9% of XC)
    Density eval.           ....       0.110 sec  (  7.3% of XC)
    XC-Functional eval.     ....       0.112 sec  (  7.5% of XC)
    XC-Potential eval.      ....       0.122 sec  (  8.2% of XC)
Diagonalization             ....       0.138 sec  (  0.7%)
Density matrix formation    ....       0.021 sec  (  0.1%)
Population analysis         ....       0.059 sec  (  0.3%)
Initial guess               ....       0.170 sec  (  0.8%)
Orbital Transformation      ....       0.000 sec  (  0.0%)
Orbital Orthonormalization  ....       0.000 sec  (  0.0%)
DIIS solution               ....       0.158 sec  (  0.8%)
SOSCF solution              ....       0.129 sec  (  0.6%)
Grid generation             ....       0.974 sec  (  4.8%)


-------------------------------------------------------------------------------
                          DFT DISPERSION CORRECTION                            
                                                                               
                              DFTD3 V3.1  Rev 1                                
                              USING zero damping                               
-------------------------------------------------------------------------------
The omegaB97X-D3 functional is recognized. Fit by Chai et al.
Active option DFTDOPT                   ...         3   

molecular C6(AA) [au] = 14233.083570 


            DFT-D V3
 parameters
 s6 scaling factor         :     1.0000 
 rs6 scaling factor        :     1.2810 
 s8 scaling factor         :     1.0000 
 rs8 scaling factor        :     1.0940 
 Damping factor alpha6     :    14.0000 
 Damping factor alpha8     :    16.0000 
 ad hoc parameters k1-k3   :    16.0000     1.3333    -4.0000 

 Edisp/kcal,au: -9.536259337085  -0.015196994968 
 E6   /kcal   :  -4.470820424 
 E8   /kcal   :  -5.065438913 
 % E8         :  53.117671557 

-------------------------   ----------------
Dispersion correction           -0.015196995
-------------------------   ----------------


-------------------------   --------------------
FINAL SINGLE POINT ENERGY     -1339.869369196875
-------------------------   --------------------


                            ***************************************
                            *     ORCA property calculations      *
                            ***************************************

                                    ---------------------
                                    Active property flags
                                    ---------------------
   (+) Dipole Moment


------------------------------------------------------------------------------
                       ORCA ELECTRIC PROPERTIES CALCULATION
------------------------------------------------------------------------------

Dipole Moment Calculation                       ... on
Quadrupole Moment Calculation                   ... off
Polarizability Calculation                      ... off
GBWName                                         ... config_7098.gbw
Electron density file                           ... config_7098.scfp
The origin for moment calculation is the CENTER OF MASS  = (-118.858341, 29.760945 -140.597675)

-------------
DIPOLE MOMENT
-------------
                                X             Y             Z
Electronic contribution:     20.11826      -5.03070     -21.99273
Nuclear contribution   :    -20.35841       5.12012      22.73703
                        -----------------------------------------
Total Dipole Moment    :     -0.24015       0.08942       0.74430
                        -----------------------------------------
Magnitude (a.u.)       :      0.78718
Magnitude (Debye)      :      2.00085



--------------------
Rotational spectrum 
--------------------
 
Rotational constants in cm-1:     0.018585     0.009620     0.007284 
Rotational constants in MHz :   557.170473   288.414015   218.374919 

 Dipole components along the rotational axes: 
x,y,z [a.u.] :    -0.287586     0.653068     0.332337 
x,y,z [Debye]:    -0.730987     1.659966     0.844734 

 

Timings for individual modules:

Sum of individual times         ...       21.654 sec (=   0.361 min)
GTO integral calculation        ...        0.791 sec (=   0.013 min)   3.7 %
SCF iterations                  ...       20.864 sec (=   0.348 min)  96.3 %
                             ****ORCA TERMINATED NORMALLY****
TOTAL RUN TIME: 0 days 0 hours 0 minutes 22 seconds 331 msec
