
                                 *****************
                                 * O   R   C   A *
                                 *****************

           --- An Ab Initio, DFT and Semiempirical electronic structure package ---

                  #######################################################
                  #                        -***-                        #
                  #          Department of theory and spectroscopy      #
                  #               Directorship: Frank Neese             #
                  #        Max Planck Institute fuer Kohlenforschung    #
                  #                Kaiser Wilhelm Platz 1               #
                  #                 D-45470 Muelheim/Ruhr               #
                  #                      Germany                        #
                  #                                                     #
                  #                  All rights reserved                #
                  #                        -***-                        #
                  #######################################################


                         Program Version 4.2.1 -  RELEASE  -


 With contributions from (in alphabetic order):
   Daniel Aravena         : Magnetic Suceptibility
   Michael Atanasov       : Ab Initio Ligand Field Theory (pilot matlab implementation)
   Alexander A. Auer      : GIAO ZORA, VPT2
   Ute Becker             : Parallelization
   Giovanni Bistoni       : ED, misc. LED, open-shell LED, HFLD
   Martin Brehm           : Molecular dynamics
   Dmytro Bykov           : SCF Hessian
   Vijay G. Chilkuri      : MRCI spin determinant printing, contributions to CSF-ICE
   Dipayan Datta          : RHF DLPNO-CCSD density
   Achintya Kumar Dutta   : EOM-CC, STEOM-CC
   Dmitry Ganyushin       : Spin-Orbit,Spin-Spin,Magnetic field MRCI
   Miquel Garcia          : C-PCM Hessian, Gaussian charge scheme
   Yang Guo               : DLPNO-NEVPT2, CIM, IAO-localization
   Andreas Hansen         : Spin unrestricted coupled pair/coupled cluster methods
   Benjamin Helmich-Paris : CASSCF linear response (MC-RPA)
   Lee Huntington         : MR-EOM, pCC
   Robert Izsak           : Overlap fitted RIJCOSX, COSX-SCS-MP3, EOM
   Christian Kollmar      : KDIIS, OOCD, Brueckner-CCSD(T), CCSD density
   Simone Kossmann        : Meta GGA functionals, TD-DFT gradient, OOMP2, MP2 Hessian
   Martin Krupicka        : AUTO-CI
   Lucas Lang             : DCDCAS
   Dagmar Lenk            : GEPOL surface, SMD
   Dimitrios Liakos       : Extrapolation schemes; Compound Job, initial MDCI parallelization
   Dimitrios Manganas     : Further ROCIS development; embedding schemes
   Dimitrios Pantazis     : SARC Basis sets
   Taras Petrenko         : DFT Hessian,TD-DFT gradient, ASA, ECA, R-Raman, ABS, FL, XAS/XES, NRVS
   Peter Pinski           : DLPNO-MP2, DLPNO-MP2 Gradient
   Christoph Reimann      : Effective Core Potentials
   Marius Retegan         : Local ZFS, SOC
   Christoph Riplinger    : Optimizer, TS searches, QM/MM, DLPNO-CCSD(T), (RO)-DLPNO pert. Triples
   Tobias Risthaus        : Range-separated hybrids, TD-DFT gradient, RPA, STAB
   Michael Roemelt        : Original ROCIS implementation
   Masaaki Saitow         : Open-shell DLPNO-CCSD energy and density
   Barbara Sandhoefer     : DKH picture change effects
   Avijit Sen             : IP-ROCIS
   Kantharuban Sivalingam : CASSCF convergence, NEVPT2, FIC-MRCI
   Bernardo de Souza      : ESD, SOC TD-DFT
   Georgi Stoychev        : AutoAux, RI-MP2 NMR
   Willem Van den Heuvel  : Paramagnetic NMR
   Boris Wezisla          : Elementary symmetry handling
   Frank Wennmohs         : Technical directorship


 We gratefully acknowledge several colleagues who have allowed us to
 interface, adapt or use parts of their codes:
   Stefan Grimme, W. Hujo, H. Kruse,             : VdW corrections, initial TS optimization,
                  C. Bannwarth                     DFT functionals, gCP, sTDA/sTD-DF
   Ed Valeev, F. Pavosevic, A. Kumar             : LibInt (2-el integral package), F12 methods
   Garnet Chan, S. Sharma, J. Yang, R. Olivares  : DMRG
   Ulf Ekstrom                                   : XCFun DFT Library
   Mihaly Kallay                                 : mrcc  (arbitrary order and MRCC methods)
   Andreas Klamt, Michael Diedenhofen            : otool_cosmo (COSMO solvation model)
   Jiri Pittner, Ondrej Demel                    : Mk-CCSD
   Frank Weinhold                                : gennbo (NPA and NBO analysis)
   Christopher J. Cramer and Donald G. Truhlar   : smd solvation model
   Lars Goerigk                                  : TD-DFT with DH, B97 family of functionals
   V. Asgeirsson, H. Jonsson                     : NEB implementation
   FAccTs GmbH                                   : IRC, NEB, NEB-TS, Multilevel, MM, QM/MM, CI optimization
   S Lehtola, MJT Oliveira, MAL Marques          : LibXC Library


 Your calculation uses the libint2 library for the computation of 2-el integrals
 For citations please refer to: http://libint.valeyev.net

 Your ORCA version has been built with support for libXC version: 4.2.3
 For citations please refer to: https://tddft.org/programs/libxc/

 This ORCA versions uses:
   CBLAS   interface :  Fast vector & matrix operations
   LAPACKE interface :  Fast linear algebra routines
   SCALAPACK package :  Parallel linear algebra routines


Your calculation utilizes the atom-pairwise dispersion correction
with the zero-damping scheme (D30)
Cite in your paper:
S.Grimme, J.Antony, S.Ehrlich and H.Krieg, J.Chem.Phys., 132, (2010), 154104 
   

XCFun DFT library Copyright 2009-2010 Ulf Ekstrom and contributors.
See http://admol.org/xcfun for more information. This is free soft-
ware; see the source code for copying conditions. There is ABSOLUTELY
NO WARRANTY; not even for MERCHANTABILITY or FITNESS FOR A PARTICULAR
PURPOSE. For details see the documentation. Scientific users of this 
library should cite U. Ekstrom, L. Visscher, R. Bast, A. J. Thorvald-
sen and K. Ruud; J.Chem.Theor.Comp. 2010, DOI: 10.1021/ct100117s
XCFun Version 0.99 
----- Orbital basis set information -----
Your calculation utilizes the basis: def2-SVP
   F. Weigend and R. Ahlrichs, Phys. Chem. Chem. Phys. 7, 3297 (2005).

================================================================================
                                        WARNINGS
                       Please study these warnings very carefully!
================================================================================


INFO   : the flag for use of LIBINT has been found!

================================================================================
                                       INPUT FILE
================================================================================
NAME = config_3102.inp
|  1> ! wB97X-D3 SP def2-SVP
|  2> %pal
|  3> nprocs 24
|  4> end
|  5> 
|  6> * xyz 0 1
|  7> S 	 -109.793 	 29.7207 	 -19.149 	 
|  8> C 	 -109.314 	 28.6765 	 -20.5625 	 
|  9> C 	 -108.496 	 29.3424 	 -21.4298 	 
| 10> C 	 -108.236 	 30.6608 	 -20.9784 	 
| 11> C 	 -108.794 	 31.0434 	 -19.7846 	 
| 12> H 	 -107.436 	 31.356 	 -21.2932 	 
| 13> C 	 -107.683 	 28.736 	 -22.563 	 
| 14> H 	 -107.733 	 27.6399 	 -22.507 	 
| 15> H 	 -106.776 	 29.138 	 -22.4703 	 
| 16> C 	 -108.218 	 29.1112 	 -23.9128 	 
| 17> H 	 -109.221 	 28.8943 	 -24.0679 	 
| 18> H 	 -108.026 	 30.2551 	 -23.971 	 
| 19> C 	 -107.382 	 28.5843 	 -25.1186 	 
| 20> H 	 -107.619 	 27.5372 	 -25.2342 	 
| 21> H 	 -107.587 	 29.1928 	 -26.0193 	 
| 22> H 	 -106.301 	 28.6682 	 -24.8209 	 
| 23> S 	 -107.224 	 31.7586 	 -17.6096 	 
| 24> C 	 -107.333 	 33.3499 	 -16.96 	 
| 25> C 	 -108.071 	 34.1393 	 -17.8322 	 
| 26> C 	 -108.656 	 33.5074 	 -18.948 	 
| 27> C 	 -108.333 	 32.1693 	 -18.9573 	 
| 28> H 	 -107.937 	 35.1956 	 -17.8381 	 
| 29> C 	 -109.581 	 34.1634 	 -19.971 	 
| 30> H 	 -110.325 	 34.8612 	 -19.5109 	 
| 31> H 	 -110.181 	 33.398 	 -20.4332 	 
| 32> C 	 -108.819 	 34.9683 	 -21.1372 	 
| 33> H 	 -107.954 	 34.3149 	 -21.4555 	 
| 34> H 	 -108.311 	 35.8439 	 -20.7898 	 
| 35> C 	 -109.637 	 35.2584 	 -22.3705 	 
| 36> H 	 -109.852 	 34.3345 	 -22.8846 	 
| 37> H 	 -109.141 	 35.8785 	 -23.1401 	 
| 38> H 	 -110.565 	 35.7342 	 -22.12 	 
| 39> H 	 -109.554 	 27.6337 	 -20.647 	 
| 40> H 	 -106.592 	 33.867 	 -16.3231 	 
| 41> *
| 42> 
| 43>                          ****END OF INPUT****
================================================================================

                       ****************************
                       * Single Point Calculation *
                       ****************************

---------------------------------
CARTESIAN COORDINATES (ANGSTROEM)
---------------------------------
  S    -109.793000   29.720700  -19.149000
  C    -109.314000   28.676500  -20.562500
  C    -108.496000   29.342400  -21.429800
  C    -108.236000   30.660800  -20.978400
  C    -108.794000   31.043400  -19.784600
  H    -107.436000   31.356000  -21.293200
  C    -107.683000   28.736000  -22.563000
  H    -107.733000   27.639900  -22.507000
  H    -106.776000   29.138000  -22.470300
  C    -108.218000   29.111200  -23.912800
  H    -109.221000   28.894300  -24.067900
  H    -108.026000   30.255100  -23.971000
  C    -107.382000   28.584300  -25.118600
  H    -107.619000   27.537200  -25.234200
  H    -107.587000   29.192800  -26.019300
  H    -106.301000   28.668200  -24.820900
  S    -107.224000   31.758600  -17.609600
  C    -107.333000   33.349900  -16.960000
  C    -108.071000   34.139300  -17.832200
  C    -108.656000   33.507400  -18.948000
  C    -108.333000   32.169300  -18.957300
  H    -107.937000   35.195600  -17.838100
  C    -109.581000   34.163400  -19.971000
  H    -110.325000   34.861200  -19.510900
  H    -110.181000   33.398000  -20.433200
  C    -108.819000   34.968300  -21.137200
  H    -107.954000   34.314900  -21.455500
  H    -108.311000   35.843900  -20.789800
  C    -109.637000   35.258400  -22.370500
  H    -109.852000   34.334500  -22.884600
  H    -109.141000   35.878500  -23.140100
  H    -110.565000   35.734200  -22.120000
  H    -109.554000   27.633700  -20.647000
  H    -106.592000   33.867000  -16.323100

----------------------------
CARTESIAN COORDINATES (A.U.)
----------------------------
  NO LB      ZA    FRAG     MASS         X           Y           Z
   0 S    16.0000    0    32.060  -207.478701   56.163984  -36.186366
   1 C     6.0000    0    12.011  -206.573523   54.190731  -38.857494
   2 C     6.0000    0    12.011  -205.027727   55.449100  -40.496453
   3 C     6.0000    0    12.011  -204.536398   57.940515  -39.643431
   4 C     6.0000    0    12.011  -205.590865   58.663524  -37.387476
   5 H     1.0000    0     1.008  -203.024617   59.254253  -40.238317
   6 C     6.0000    0    12.011  -203.491379   54.303170  -42.637891
   7 H     1.0000    0     1.008  -203.585866   52.231841  -42.532066
   8 H     1.0000    0     1.008  -201.777398   55.062840  -42.462713
   9 C     6.0000    0    12.011  -204.502383   55.012195  -45.188643
  10 H     1.0000    0     1.008  -206.397778   54.602314  -45.481740
  11 H     1.0000    0     1.008  -204.139555   57.173853  -45.298625
  12 C     6.0000    0    12.011  -202.922572   54.016499  -47.467275
  13 H     1.0000    0     1.008  -203.370437   52.037766  -47.685727
  14 H     1.0000    0     1.008  -203.309966   55.166397  -49.169351
  15 H     1.0000    0     1.008  -200.879778   54.175047  -46.904703
  16 S    16.0000    0    32.060  -202.623995   60.015056  -33.277321
  17 C     6.0000    0    12.011  -202.829975   63.022178  -32.049755
  18 C     6.0000    0    12.011  -204.224593   64.513927  -33.697974
  19 C     6.0000    0    12.011  -205.330083   63.319809  -35.806531
  20 C     6.0000    0    12.011  -204.719701   60.791167  -35.824105
  21 H     1.0000    0     1.008  -203.971370   66.510045  -33.709124
  22 C     6.0000    0    12.011  -207.078079   64.559470  -37.739721
  23 H     1.0000    0     1.008  -208.484036   65.878121  -36.870258
  24 H     1.0000    0     1.008  -208.211915   63.113073  -38.613152
  25 C     6.0000    0    12.011  -205.638108   66.080510  -39.943519
  26 H     1.0000    0     1.008  -204.003495   64.845763  -40.545019
  27 H     1.0000    0     1.008  -204.678127   67.735155  -39.287028
  28 C     6.0000    0    12.011  -207.183904   66.628720  -42.274118
  29 H     1.0000    0     1.008  -207.590195   64.882802  -43.245627
  30 H     1.0000    0     1.008  -206.246600   67.800539  -43.728452
  31 H     1.0000    0     1.008  -208.937570   67.527852  -41.800742
  32 H     1.0000    0     1.008  -207.027057   52.220125  -39.017175
  33 H     1.0000    0     1.008  -201.429688   63.999355  -30.846189

--------------------------------
INTERNAL COORDINATES (ANGSTROEM)
--------------------------------
 S      0   0   0     0.000000000000     0.00000000     0.00000000
 C      1   0   0     1.821476568611     0.00000000     0.00000000
 C      2   1   0     1.365560727320   111.76777303     0.00000000
 C      3   2   1     1.417582632512   111.17054988     0.62029589
 C      4   3   2     1.372189928545   117.50103505     1.23741121
 H      4   3   2     1.105622937533   128.81723427   162.91827966
 C      3   2   1     1.520799855339   126.80129561   167.23843579
 H      7   3   2     1.098667925262   109.60273863   352.07719617
 H      7   3   2     0.996416725070   104.85791554   226.85036009
 C      7   3   2     1.499653319938   112.34621768   109.91017798
 H     10   7   3     1.037839399907   115.27714351   305.38465682
 H     10   7   3     1.161360602914   103.44764184    66.72571530
 C     10   7   3     1.558997514430   114.85334386   176.82150236
 H     13  10   7     1.079792003119   107.02843850    77.27987754
 H     13  10   7     1.106145442516   110.15066607   201.62977009
 H     13  10   7     1.124377827956   106.59176831   321.72106996
 S      5   4   3     2.776154902018   121.56490823   117.68012722
 C     17   5   4     1.722236002991   119.85136975   118.35341655
 C     18  17   5     1.388714945552   108.78157522   349.13311617
 C     19  18  17     1.409443950642   117.57662325     5.28504830
 C     20  19  18     1.376563511067   110.10636901   358.67066713
 H     19  18  17     1.064781902551   120.03391728   204.57079583
 C     20  19  18     1.527249161074   126.09256733   175.45692850
 H     23  20  19     1.118996358350   113.27418292   319.19602548
 H     23  20  19     1.076785029614   108.64388098   203.63282473
 C     23  20  19     1.608891062192   114.42858004    82.92146019
 H     26  23  20     1.129810360193   106.11060895    43.15029716
 H     26  23  20     1.070245822230   113.50431693   292.41953264
 C     26  23  20     1.508081861173   115.60191834   161.84830819
 H     29  26  23     1.078941620293   109.45287265   292.20051347
 H     29  26  23     1.105813804399   115.70441391   175.45150119
 H     29  26  23     1.072529668587   111.32458879    52.25137871
 H      2   1   3     1.073392793902   124.00215668   173.57191917
 H     18  17   5     1.105493111693   127.37831366   199.72541757

---------------------------
INTERNAL COORDINATES (A.U.)
---------------------------
 S      0   0   0     0.000000000000     0.00000000     0.00000000
 C      1   0   0     3.442091874030     0.00000000     0.00000000
 C      2   1   0     2.580535793874   111.76777303     0.00000000
 C      3   2   1     2.678842947651   111.17054988     0.62029589
 C      4   3   2     2.593063168675   117.50103505     1.23741121
 H      4   3   2     2.089324559320   128.81723427   162.91827966
 C      3   2   1     2.873895231098   126.80129561   167.23843579
 H      7   3   2     2.076181490869   109.60273863   352.07719617
 H      7   3   2     1.882954725642   104.85791554   226.85036009
 C      7   3   2     2.833934070508   112.34621768   109.91017798
 H     10   7   3     1.961232236818   115.27714351   305.38465682
 H     10   7   3     2.194653482233   103.44764184    66.72571530
 C     10   7   3     2.946078345737   114.85334386   176.82150236
 H     13  10   7     2.040511167493   107.02843850    77.27987754
 H     13  10   7     2.090311950641   110.15066607   201.62977009
 H     13  10   7     2.124766165891   106.59176831   321.72106996
 S      5   4   3     5.246172470157   121.56490823   117.68012722
 C     17   5   4     3.254554383633   119.85136975   118.35341655
 C     18  17   5     2.624290925177   108.78157522   349.13311617
 C     19  18  17     2.663463067825   117.57662325     5.28504830
 C     20  19  18     2.601328041865   110.10636901   358.67066713
 H     19  18  17     2.012146188177   120.03391728   204.57079583
 C     20  19  18     2.886082652690   126.09256733   175.45692850
 H     23  20  19     2.114596662136   113.27418292   319.19602548
 H     23  20  19     2.034828811076   108.64388098   203.63282473
 C     23  20  19     3.040363486856   114.42858004    82.92146019
 H     26  23  20     2.135032164032   106.11060895    43.15029716
 H     26  23  20     2.022471499987   113.50431693   292.41953264
 C     26  23  20     2.849861705152   115.60191834   161.84830819
 H     29  26  23     2.038904176843   109.45287265   292.20051347
 H     29  26  23     2.089685245424   115.70441391   175.45150119
 H     29  26  23     2.026787344135   111.32458879    52.25137871
 H      2   1   3     2.028418414599   124.00215668   173.57191917
 H     18  17   5     2.089079224036   127.37831366   199.72541757

---------------------
BASIS SET INFORMATION
---------------------
There are 3 groups of distinct atoms

 Group   1 Type S   : 10s7p1d contracted to 4s3p1d pattern {5311/511/1}
 Group   2 Type C   : 7s4p1d contracted to 3s2p1d pattern {511/31/1}
 Group   3 Type H   : 4s1p contracted to 2s1p pattern {31/1}

Atom   0S    basis set group =>   1
Atom   1C    basis set group =>   2
Atom   2C    basis set group =>   2
Atom   3C    basis set group =>   2
Atom   4C    basis set group =>   2
Atom   5H    basis set group =>   3
Atom   6C    basis set group =>   2
Atom   7H    basis set group =>   3
Atom   8H    basis set group =>   3
Atom   9C    basis set group =>   2
Atom  10H    basis set group =>   3
Atom  11H    basis set group =>   3
Atom  12C    basis set group =>   2
Atom  13H    basis set group =>   3
Atom  14H    basis set group =>   3
Atom  15H    basis set group =>   3
Atom  16S    basis set group =>   1
Atom  17C    basis set group =>   2
Atom  18C    basis set group =>   2
Atom  19C    basis set group =>   2
Atom  20C    basis set group =>   2
Atom  21H    basis set group =>   3
Atom  22C    basis set group =>   2
Atom  23H    basis set group =>   3
Atom  24H    basis set group =>   3
Atom  25C    basis set group =>   2
Atom  26H    basis set group =>   3
Atom  27H    basis set group =>   3
Atom  28C    basis set group =>   2
Atom  29H    basis set group =>   3
Atom  30H    basis set group =>   3
Atom  31H    basis set group =>   3
Atom  32H    basis set group =>   3
Atom  33H    basis set group =>   3


           ************************************************************
           *        Program running with 24 parallel MPI-processes    *
           *              working on a common directory               *
           ************************************************************
------------------------------------------------------------------------------
                           ORCA GTO INTEGRAL CALCULATION
------------------------------------------------------------------------------

                         BASIS SET STATISTICS AND STARTUP INFO

 # of primitive gaussian shells          ...  294
 # of primitive gaussian functions       ...  534
 # of contracted shells                  ...  154
 # of contracted basis functions         ...  322
 Highest angular momentum                ...    2
 Maximum contraction depth               ...    5
 Integral package used                   ... LIBINT
 Integral threshhold            Thresh   ...  1.000e-10
 Primitive cut-off              TCut     ...  1.000e-11


------------------------------ INTEGRAL EVALUATION ----------------------------


 * One electron integrals 
 Pre-screening matrix                    ... done
 Shell pair data                         ... done (   0.003 sec)



           ************************************************************
           *        Program running with 24 parallel MPI-processes    *
           *              working on a common directory               *
           ************************************************************
-------------------------------------------------------------------------------
                                 ORCA SCF
-------------------------------------------------------------------------------

------------
SCF SETTINGS
------------
Hamiltonian:
 Density Functional     Method          .... DFT(GTOs)
 Exchange Functional    Exchange        .... WB97X-D3
 Correlation Functional Correlation     .... WB97X-D3
 Gradients option       PostSCFGGA      .... off
 Hybrid DFT is turned on
   Fraction HF Exchange ScalHFX         ....  0.195728
   Scaling of DF-GGA-X  ScalDFX         ....  0.000000
   Scaling of DF-GGA-C  ScalDFC         ....  1.000000
   Scaling of DF-LDA-C  ScalLDAC        ....  1.000000
   Perturbative correction              ....  0.000000
   Density functional embedding theory  .... OFF
 Long-range corrected/Screened/Range-Separated Hybrid DFT is turned on
   Amount of maximum screened exact exchange              ....  0.804272
   Range separation parameter mu (erf(mu*r12)/r12)        ....  0.250000


General Settings:
 Integral files         IntName         .... config_3102
 Hartree-Fock type      HFTyp           .... RHF
 Total Charge           Charge          ....    0
 Multiplicity           Mult            ....    1
 Number of Electrons    NEL             ....  134
 Basis Dimension        Dim             ....  322
 Nuclear Repulsion      ENuc            ....   1267.3973594715 Eh

Convergence Acceleration:
 DIIS                   CNVDIIS         .... on
   Start iteration      DIISMaxIt       ....    12
   Startup error        DIISStart       ....  0.200000
   # of expansion vecs  DIISMaxEq       ....     5
   Bias factor          DIISBfac        ....   1.050
   Max. coefficient     DIISMaxC        ....  10.000
 Newton-Raphson         CNVNR           .... off
 SOSCF                  CNVSOSCF        .... on
   Start iteration      SOSCFMaxIt      ....   150
   Startup grad/error   SOSCFStart      ....  0.003300
 Level Shifting         CNVShift        .... on
   Level shift para.    LevelShift      ....    0.2500
   Turn off err/grad.   ShiftErr        ....    0.0010
 Zerner damping         CNVZerner       .... off
 Static damping         CNVDamp         .... on
   Fraction old density DampFac         ....    0.7000
   Max. Damping (<1)    DampMax         ....    0.9800
   Min. Damping (>=0)   DampMin         ....    0.0000
   Turn off err/grad.   DampErr         ....    0.1000
 Fernandez-Rico         CNVRico         .... off

SCF Procedure:
 Maximum # iterations   MaxIter         ....   125
 SCF integral mode      SCFMode         .... Direct
   Integral package                     .... LIBINT
 Reset frequency        DirectResetFreq ....    20
 Integral Threshold     Thresh          ....  1.000e-10 Eh
 Primitive CutOff       TCut            ....  1.000e-11 Eh

Convergence Tolerance:
 Convergence Check Mode ConvCheckMode   .... Total+1el-Energy
 Convergence forced     ConvForced      .... 0
 Energy Change          TolE            ....  1.000e-06 Eh
 1-El. energy change                    ....  1.000e-03 Eh
 Orbital Gradient       TolG            ....  5.000e-05
 Orbital Rotation angle TolX            ....  5.000e-05
 DIIS Error             TolErr          ....  1.000e-06


Diagonalization of the overlap matrix:
Smallest eigenvalue                        ... 6.633e-04
Time for diagonalization                   ...    0.014 sec
Threshold for overlap eigenvalues          ... 1.000e-08
Number of eigenvalues below threshold      ... 0
Time for construction of square roots      ...    0.027 sec
Total time needed                          ...    0.041 sec

-------------------
DFT GRID GENERATION
-------------------

General Integration Accuracy     IntAcc      ...  4.340
Radial Grid Type                 RadialGrid  ... Gauss-Chebyshev
Angular Grid (max. acc.)         AngularGrid ... Lebedev-110
Angular grid pruning method      GridPruning ... 3 (G Style)
Weight generation scheme         WeightScheme... Becke
Basis function cutoff            BFCut       ...    1.0000e-10
Integration weight cutoff        WCut        ...    1.0000e-14
Grids for H and He will be reduced by one unit

# of grid points (after initial pruning)     ...  41088 (   0.0 sec)
# of grid points (after weights+screening)   ...  37108 (   0.0 sec)
nearest neighbour list constructed           ...    0.0 sec
Grid point re-assignment to atoms done       ...    0.0 sec
Grid point division into batches done        ...    0.0 sec
Reduced shell lists constructed in    0.1 sec

Total number of grid points                  ...    37108
Total number of batches                      ...      595
Average number of points per batch           ...       62
Average number of grid points per atom       ...     1091
Average number of shells per batch           ...    68.77 (44.66%)
Average number of basis functions per batch  ...   136.00 (42.24%)
Average number of large shells per batch     ...    42.62 (61.97%)
Average number of large basis fcns per batch ...    88.00 (64.71%)
Maximum spatial batch extension              ...  14.03, 16.81, 16.44 au
Average spatial batch extension              ...   0.18,  0.18,  0.19 au

Time for grid setup =    0.151 sec

------------------------------
INITIAL GUESS: MODEL POTENTIAL
------------------------------
Loading Hartree-Fock densities                     ... done
Calculating cut-offs                               ... done
Setting up the integral package                    ... done
Initializing the effective Hamiltonian             ... done
Starting the Coulomb interaction                   ... done (   0.0 sec)
Reading the grid                                   ... done
Mapping shells                                     ... done
Starting the XC term evaluation                    ... done (   0.0 sec)
  promolecular density results
     # of electrons  =    134.002977622
     EX              =   -126.704939366
     EC              =     -4.611797144
     EX+EC           =   -131.316736510
Transforming the Hamiltonian                       ... done (   0.0 sec)
Diagonalizing the Hamiltonian                      ... done (   0.0 sec)
Back transforming the eigenvectors                 ... done (   0.0 sec)
Now organizing SCF variables                       ... done
                      ------------------
                      INITIAL GUESS DONE (   0.3 sec)
                      ------------------
--------------
SCF ITERATIONS
--------------
ITER       Energy         Delta-E        Max-DP      RMS-DP      [F,P]     Damp
               ***  Starting incremental Fock matrix formation  ***
  0  -1339.4050280664   0.000000000000 0.06587633  0.00152934  0.1627684 0.7000
  1  -1339.5917757323  -0.186747665867 0.04419218  0.00112323  0.0984713 0.7000
                               ***Turning on DIIS***
  2  -1339.6831327817  -0.091357049395 0.08107716  0.00214177  0.0510999 0.0000
  3  -1339.8208736092  -0.137740827504 0.04368896  0.00095812  0.0367254 0.0000
  4  -1339.8502744000  -0.029400790806 0.00763432  0.00020845  0.0075508 0.0000
                      *** Initiating the SOSCF procedure ***
                           *** Shutting down DIIS ***
                      *** Re-Reading the Fockian *** 
                      *** Removing any level shift *** 
ITER      Energy       Delta-E        Grad      Rot      Max-DP    RMS-DP
  5  -1339.85122992  -0.0009555161  0.001756  0.001756  0.003168  0.000104
               *** Restarting incremental Fock matrix formation ***
  6  -1339.85142922  -0.0001993017  0.001436  0.004009  0.002457  0.000066
  7  -1339.85149678  -0.0000675632  0.000884  0.005348  0.002480  0.000063
  8  -1339.85151556  -0.0000187754  0.000261  0.000746  0.000807  0.000019
  9  -1339.85151962  -0.0000040655  0.000163  0.000355  0.000247  0.000008
                 **** Energy Check signals convergence ****
              ***Rediagonalizing the Fockian in SOSCF/NRSCF***

               *****************************************************
               *                     SUCCESS                       *
               *           SCF CONVERGED AFTER  10 CYCLES          *
               *****************************************************

Setting up the final grid:

General Integration Accuracy     IntAcc      ...  4.670
Radial Grid Type                 RadialGrid  ... Gauss-Chebyshev
Angular Grid (max. acc.)         AngularGrid ... Lebedev-302
Angular grid pruning method      GridPruning ... 3 (G Style)
Weight generation scheme         WeightScheme... Becke
Basis function cutoff            BFCut       ...    1.0000e-10
Integration weight cutoff        WCut        ...    1.0000e-14
Grids for H and He will be reduced by one unit

# of grid points (after initial pruning)     ... 161752 (   0.0 sec)
# of grid points (after weights+screening)   ... 143301 (   0.1 sec)
nearest neighbour list constructed           ...    0.0 sec
Grid point re-assignment to atoms done       ...    0.0 sec
Grid point division into batches done        ...    0.5 sec
Reduced shell lists constructed in    0.5 sec

Total number of grid points                  ...   143301
Total number of batches                      ...     2258
Average number of points per batch           ...       63
Average number of grid points per atom       ...     4215
Average number of shells per batch           ...    62.35 (40.49%)
Average number of basis functions per batch  ...   122.56 (38.06%)
Average number of large shells per batch     ...    37.60 (60.31%)
Average number of large basis fcns per batch ...    77.88 (63.54%)
Maximum spatial batch extension              ...  15.82, 13.83, 14.45 au
Average spatial batch extension              ...   0.12,  0.12,  0.12 au

Final grid set up in    0.8 sec
Final integration                            ... done (   0.2 sec)
Change in XC energy                          ...     0.006256093
Integrated number of electrons               ...   134.000124020
Previous integrated no of electrons          ...   134.008242793

----------------
TOTAL SCF ENERGY
----------------

Total Energy       :        -1339.84526388 Eh          -36459.04317 eV

Components:
Nuclear Repulsion  :         1267.39735947 Eh           34487.63547 eV
Electronic Energy  :        -2607.24262335 Eh          -70946.67864 eV
One Electron Energy:        -4351.35383730 Eh         -118406.35758 eV
Two Electron Energy:         1744.11121395 Eh           47459.67894 eV

Virial components:
Potential Energy   :        -2671.35829764 Eh          -72691.35484 eV
Kinetic Energy     :         1331.51303376 Eh           36232.31166 eV
Virial Ratio       :            2.00625772


DFT components:
N(Alpha)           :       67.000062010006 electrons
N(Beta)            :       67.000062010006 electrons
N(Total)           :      134.000124020013 electrons
E(XC)              :      -94.242527720775 Eh       
DFET-embed. en.    :        0.000000000000 Eh       

---------------
SCF CONVERGENCE
---------------

  Last Energy change         ...   -3.4782e-07  Tolerance :   1.0000e-06
  Last MAX-Density change    ...    1.6983e-04  Tolerance :   1.0000e-05
  Last RMS-Density change    ...    3.6654e-06  Tolerance :   1.0000e-06
  Last Orbital Gradient      ...    9.6170e-05  Tolerance :   5.0000e-05
  Last Orbital Rotation      ...    1.6982e-04  Tolerance :   5.0000e-05

             **** THE GBW FILE WAS UPDATED (config_3102.gbw) ****
             **** DENSITY FILE WAS UPDATED (config_3102.scfp) ****
             **** ENERGY FILE WAS UPDATED (config_3102.en.tmp) ****
             **** THE GBW FILE WAS UPDATED (config_3102.gbw) ****
             **** DENSITY FILE WAS UPDATED (config_3102.scfp) ****
----------------
ORBITAL ENERGIES
----------------

  NO   OCC          E(Eh)            E(eV) 
   0   2.0000     -88.966791     -2420.9095 
   1   2.0000     -88.965775     -2420.8818 
   2   2.0000     -10.330187      -281.0987 
   3   2.0000     -10.329681      -281.0849 
   4   2.0000     -10.319252      -280.8011 
   5   2.0000     -10.317811      -280.7619 
   6   2.0000     -10.304117      -280.3893 
   7   2.0000     -10.302275      -280.3392 
   8   2.0000     -10.299813      -280.2722 
   9   2.0000     -10.295283      -280.1489 
  10   2.0000     -10.290399      -280.0160 
  11   2.0000     -10.288781      -279.9720 
  12   2.0000     -10.286740      -279.9164 
  13   2.0000     -10.285393      -279.8798 
  14   2.0000     -10.284301      -279.8501 
  15   2.0000     -10.275321      -279.6057 
  16   2.0000      -8.081235      -219.9016 
  17   2.0000      -8.079082      -219.8430 
  18   2.0000      -6.039757      -164.3502 
  19   2.0000      -6.037767      -164.2960 
  20   2.0000      -6.035761      -164.2414 
  21   2.0000      -6.033872      -164.1900 
  22   2.0000      -6.031980      -164.1385 
  23   2.0000      -6.029644      -164.0750 
  24   2.0000      -1.004785       -27.3416 
  25   2.0000      -0.983300       -26.7570 
  26   2.0000      -0.919330       -25.0163 
  27   2.0000      -0.901710       -24.5368 
  28   2.0000      -0.868990       -23.6464 
  29   2.0000      -0.854566       -23.2539 
  30   2.0000      -0.843067       -22.9410 
  31   2.0000      -0.812887       -22.1198 
  32   2.0000      -0.785103       -21.3637 
  33   2.0000      -0.775011       -21.0891 
  34   2.0000      -0.704701       -19.1759 
  35   2.0000      -0.697922       -18.9914 
  36   2.0000      -0.695307       -18.9203 
  37   2.0000      -0.659112       -17.9353 
  38   2.0000      -0.645557       -17.5665 
  39   2.0000      -0.616560       -16.7774 
  40   2.0000      -0.595163       -16.1952 
  41   2.0000      -0.583217       -15.8702 
  42   2.0000      -0.564596       -15.3634 
  43   2.0000      -0.555970       -15.1287 
  44   2.0000      -0.527630       -14.3575 
  45   2.0000      -0.522868       -14.2280 
  46   2.0000      -0.516522       -14.0553 
  47   2.0000      -0.513503       -13.9731 
  48   2.0000      -0.503232       -13.6937 
  49   2.0000      -0.502206       -13.6657 
  50   2.0000      -0.492260       -13.3951 
  51   2.0000      -0.482703       -13.1350 
  52   2.0000      -0.473659       -12.8889 
  53   2.0000      -0.466974       -12.7070 
  54   2.0000      -0.458476       -12.4758 
  55   2.0000      -0.447178       -12.1683 
  56   2.0000      -0.443294       -12.0626 
  57   2.0000      -0.439120       -11.9491 
  58   2.0000      -0.431317       -11.7367 
  59   2.0000      -0.425523       -11.5791 
  60   2.0000      -0.420148       -11.4328 
  61   2.0000      -0.414035       -11.2665 
  62   2.0000      -0.408685       -11.1209 
  63   2.0000      -0.337943        -9.1959 
  64   2.0000      -0.334499        -9.1022 
  65   2.0000      -0.324567        -8.8319 
  66   2.0000      -0.308160        -8.3855 
  67   0.0000       0.033769         0.9189 
  68   0.0000       0.050551         1.3756 
  69   0.0000       0.111134         3.0241 
  70   0.0000       0.116428         3.1682 
  71   0.0000       0.128364         3.4930 
  72   0.0000       0.131652         3.5824 
  73   0.0000       0.141735         3.8568 
  74   0.0000       0.152959         4.1622 
  75   0.0000       0.161321         4.3898 
  76   0.0000       0.168573         4.5871 
  77   0.0000       0.174103         4.7376 
  78   0.0000       0.189389         5.1535 
  79   0.0000       0.193826         5.2743 
  80   0.0000       0.198316         5.3964 
  81   0.0000       0.205701         5.5974 
  82   0.0000       0.209009         5.6874 
  83   0.0000       0.213136         5.7997 
  84   0.0000       0.221409         6.0248 
  85   0.0000       0.226774         6.1708 
  86   0.0000       0.228412         6.2154 
  87   0.0000       0.241894         6.5823 
  88   0.0000       0.242852         6.6083 
  89   0.0000       0.247253         6.7281 
  90   0.0000       0.258760         7.0412 
  91   0.0000       0.265574         7.2266 
  92   0.0000       0.273902         7.4532 
  93   0.0000       0.298973         8.1355 
  94   0.0000       0.305011         8.2998 
  95   0.0000       0.310819         8.4578 
  96   0.0000       0.320864         8.7312 
  97   0.0000       0.336756         9.1636 
  98   0.0000       0.343199         9.3389 
  99   0.0000       0.364184         9.9099 
 100   0.0000       0.384424        10.4607 
 101   0.0000       0.391434        10.6515 
 102   0.0000       0.414660        11.2835 
 103   0.0000       0.430791        11.7224 
 104   0.0000       0.438279        11.9262 
 105   0.0000       0.453038        12.3278 
 106   0.0000       0.471935        12.8420 
 107   0.0000       0.487053        13.2534 
 108   0.0000       0.489764        13.3272 
 109   0.0000       0.493262        13.4224 
 110   0.0000       0.500181        13.6106 
 111   0.0000       0.515963        14.0401 
 112   0.0000       0.521782        14.1984 
 113   0.0000       0.525317        14.2946 
 114   0.0000       0.527723        14.3601 
 115   0.0000       0.531688        14.4680 
 116   0.0000       0.541930        14.7467 
 117   0.0000       0.544879        14.8269 
 118   0.0000       0.565423        15.3860 
 119   0.0000       0.565972        15.4009 
 120   0.0000       0.578912        15.7530 
 121   0.0000       0.591103        16.0847 
 122   0.0000       0.601794        16.3756 
 123   0.0000       0.606374        16.5003 
 124   0.0000       0.619682        16.8624 
 125   0.0000       0.626855        17.0576 
 126   0.0000       0.635148        17.2833 
 127   0.0000       0.639342        17.3974 
 128   0.0000       0.648046        17.6342 
 129   0.0000       0.660222        17.9656 
 130   0.0000       0.664679        18.0868 
 131   0.0000       0.667184        18.1550 
 132   0.0000       0.685819        18.6621 
 133   0.0000       0.689962        18.7748 
 134   0.0000       0.696541        18.9538 
 135   0.0000       0.710138        19.3238 
 136   0.0000       0.714949        19.4548 
 137   0.0000       0.721291        19.6273 
 138   0.0000       0.728620        19.8267 
 139   0.0000       0.735320        20.0091 
 140   0.0000       0.737153        20.0589 
 141   0.0000       0.743612        20.2347 
 142   0.0000       0.750062        20.4102 
 143   0.0000       0.752920        20.4880 
 144   0.0000       0.760449        20.6929 
 145   0.0000       0.767948        20.8969 
 146   0.0000       0.769729        20.9454 
 147   0.0000       0.772917        21.0321 
 148   0.0000       0.775337        21.0980 
 149   0.0000       0.784232        21.3400 
 150   0.0000       0.785098        21.3636 
 151   0.0000       0.787847        21.4384 
 152   0.0000       0.794804        21.6277 
 153   0.0000       0.797572        21.7030 
 154   0.0000       0.800193        21.7744 
 155   0.0000       0.803620        21.8676 
 156   0.0000       0.805054        21.9066 
 157   0.0000       0.811727        22.0882 
 158   0.0000       0.813920        22.1479 
 159   0.0000       0.815119        22.1805 
 160   0.0000       0.822774        22.3888 
 161   0.0000       0.825285        22.4571 
 162   0.0000       0.834452        22.7066 
 163   0.0000       0.838829        22.8257 
 164   0.0000       0.853290        23.2192 
 165   0.0000       0.856339        23.3022 
 166   0.0000       0.864196        23.5160 
 167   0.0000       0.872793        23.7499 
 168   0.0000       0.878692        23.9104 
 169   0.0000       0.892112        24.2756 
 170   0.0000       0.896315        24.3900 
 171   0.0000       0.922703        25.1080 
 172   0.0000       0.923882        25.1401 
 173   0.0000       0.931993        25.3608 
 174   0.0000       0.944501        25.7012 
 175   0.0000       0.967949        26.3392 
 176   0.0000       0.993628        27.0380 
 177   0.0000       0.998172        27.1616 
 178   0.0000       1.034080        28.1387 
 179   0.0000       1.034743        28.1568 
 180   0.0000       1.050569        28.5874 
 181   0.0000       1.065423        28.9916 
 182   0.0000       1.078726        29.3536 
 183   0.0000       1.087189        29.5839 
 184   0.0000       1.091819        29.7099 
 185   0.0000       1.102731        30.0068 
 186   0.0000       1.119216        30.4554 
 187   0.0000       1.124709        30.6049 
 188   0.0000       1.147243        31.2181 
 189   0.0000       1.154759        31.4226 
 190   0.0000       1.176942        32.0262 
 191   0.0000       1.190322        32.3903 
 192   0.0000       1.224041        33.3078 
 193   0.0000       1.246689        33.9241 
 194   0.0000       1.276714        34.7411 
 195   0.0000       1.290648        35.1203 
 196   0.0000       1.313429        35.7402 
 197   0.0000       1.323905        36.0253 
 198   0.0000       1.354682        36.8628 
 199   0.0000       1.379548        37.5394 
 200   0.0000       1.392756        37.8988 
 201   0.0000       1.425051        38.7776 
 202   0.0000       1.440163        39.1888 
 203   0.0000       1.474820        40.1319 
 204   0.0000       1.477029        40.1920 
 205   0.0000       1.483479        40.3675 
 206   0.0000       1.495447        40.6932 
 207   0.0000       1.505267        40.9604 
 208   0.0000       1.537801        41.8457 
 209   0.0000       1.557608        42.3847 
 210   0.0000       1.584380        43.1132 
 211   0.0000       1.588450        43.2239 
 212   0.0000       1.614289        43.9270 
 213   0.0000       1.615495        43.9599 
 214   0.0000       1.642333        44.6901 
 215   0.0000       1.657904        45.1139 
 216   0.0000       1.680770        45.7361 
 217   0.0000       1.692219        46.0476 
 218   0.0000       1.752725        47.6941 
 219   0.0000       1.779028        48.4098 
 220   0.0000       1.792790        48.7843 
 221   0.0000       1.796542        48.8864 
 222   0.0000       1.813167        49.3388 
 223   0.0000       1.817531        49.4575 
 224   0.0000       1.825020        49.6613 
 225   0.0000       1.833614        49.8952 
 226   0.0000       1.837703        50.0064 
 227   0.0000       1.840261        50.0761 
 228   0.0000       1.849209        50.3195 
 229   0.0000       1.853734        50.4427 
 230   0.0000       1.862523        50.6818 
 231   0.0000       1.876716        51.0680 
 232   0.0000       1.877575        51.0914 
 233   0.0000       1.883069        51.2409 
 234   0.0000       1.888088        51.3775 
 235   0.0000       1.894915        51.5633 
 236   0.0000       1.904131        51.8140 
 237   0.0000       1.914165        52.0871 
 238   0.0000       1.919647        52.2363 
 239   0.0000       1.921130        52.2766 
 240   0.0000       1.929700        52.5098 
 241   0.0000       1.935696        52.6730 
 242   0.0000       1.952421        53.1281 
 243   0.0000       1.977353        53.8065 
 244   0.0000       1.987630        54.0862 
 245   0.0000       1.989316        54.1320 
 246   0.0000       2.005448        54.5710 
 247   0.0000       2.010017        54.6953 
 248   0.0000       2.029741        55.2320 
 249   0.0000       2.033018        55.3212 
 250   0.0000       2.041074        55.5404 
 251   0.0000       2.052626        55.8548 
 252   0.0000       2.057268        55.9811 
 253   0.0000       2.069138        56.3041 
 254   0.0000       2.078145        56.5492 
 255   0.0000       2.102919        57.2233 
 256   0.0000       2.114315        57.5334 
 257   0.0000       2.118266        57.6410 
 258   0.0000       2.152202        58.5644 
 259   0.0000       2.160818        58.7989 
 260   0.0000       2.172257        59.1101 
 261   0.0000       2.180689        59.3396 
 262   0.0000       2.199135        59.8415 
 263   0.0000       2.218426        60.3664 
 264   0.0000       2.223802        60.5127 
 265   0.0000       2.235551        60.8324 
 266   0.0000       2.238757        60.9197 
 267   0.0000       2.260753        61.5182 
 268   0.0000       2.266291        61.6689 
 269   0.0000       2.269769        61.7636 
 270   0.0000       2.313651        62.9576 
 271   0.0000       2.376665        64.6723 
 272   0.0000       2.388297        64.9889 
 273   0.0000       2.392857        65.1129 
 274   0.0000       2.401316        65.3431 
 275   0.0000       2.416174        65.7474 
 276   0.0000       2.424822        65.9827 
 277   0.0000       2.442443        66.4623 
 278   0.0000       2.452828        66.7449 
 279   0.0000       2.471801        67.2611 
 280   0.0000       2.496548        67.9345 
 281   0.0000       2.508413        68.2574 
 282   0.0000       2.521295        68.6079 
 283   0.0000       2.544214        69.2316 
 284   0.0000       2.545931        69.2783 
 285   0.0000       2.559137        69.6377 
 286   0.0000       2.567501        69.8653 
 287   0.0000       2.594769        70.6073 
 288   0.0000       2.613763        71.1241 
 289   0.0000       2.625877        71.4538 
 290   0.0000       2.642188        71.8976 
 291   0.0000       2.664923        72.5162 
 292   0.0000       2.703278        73.5599 
 293   0.0000       2.721275        74.0497 
 294   0.0000       2.734250        74.4027 
 295   0.0000       2.755116        74.9705 
 296   0.0000       2.757575        75.0374 
 297   0.0000       2.760929        75.1287 
 298   0.0000       2.805164        76.3324 
 299   0.0000       2.820991        76.7631 
 300   0.0000       2.848311        77.5065 
 301   0.0000       2.865964        77.9869 
 302   0.0000       2.876078        78.2621 
 303   0.0000       2.893702        78.7416 
 304   0.0000       2.944729        80.1302 
 305   0.0000       2.956205        80.4424 
 306   0.0000       2.989005        81.3350 
 307   0.0000       3.010141        81.9101 
 308   0.0000       3.034844        82.5823 
 309   0.0000       3.047393        82.9238 
 310   0.0000       3.058520        83.2266 
 311   0.0000       3.078003        83.7567 
 312   0.0000       3.101227        84.3887 
 313   0.0000       3.108070        84.5749 
 314   0.0000       3.130060        85.1733 
 315   0.0000       3.155058        85.8535 
 316   0.0000       3.166119        86.1545 
 317   0.0000       3.220870        87.6443 
 318   0.0000       3.249738        88.4299 
 319   0.0000       3.303795        89.9008 
 320   0.0000       3.359907        91.4277 
 321   0.0000       3.406290        92.6899 

                    ********************************
                    * MULLIKEN POPULATION ANALYSIS *
                    ********************************

-----------------------
MULLIKEN ATOMIC CHARGES
-----------------------
   0 S :    0.097646
   1 C :   -0.134831
   2 C :   -0.062510
   3 C :    0.025737
   4 C :   -0.168176
   5 H :    0.028866
   6 C :    0.162151
   7 H :    0.019525
   8 H :   -0.009622
   9 C :   -0.127745
  10 H :    0.023270
  11 H :    0.029435
  12 C :   -0.045057
  13 H :    0.032454
  14 H :    0.050686
  15 H :    0.030626
  16 S :    0.116368
  17 C :   -0.085130
  18 C :   -0.046813
  19 C :   -0.007327
  20 C :   -0.209035
  21 H :    0.012174
  22 C :    0.065117
  23 H :    0.039433
  24 H :    0.025615
  25 C :   -0.089904
  26 H :    0.026840
  27 H :    0.023176
  28 C :   -0.036261
  29 H :    0.029023
  30 H :    0.037398
  31 H :    0.026180
  32 H :    0.044270
  33 H :    0.076417
Sum of atomic charges:   -0.0000000

--------------------------------
MULLIKEN REDUCED ORBITAL CHARGES
--------------------------------
  0 S s       :     5.856620  s :     5.856620
      pz      :     3.366422  p :     9.951455
      px      :     3.548130
      py      :     3.036903
      dz2     :     0.015515  d :     0.094279
      dxz     :     0.011921
      dyz     :     0.028285
      dx2y2   :     0.013340
      dxy     :     0.025219
  1 C s       :     3.206242  s :     3.206242
      pz      :     0.936848  p :     2.895519
      px      :     1.043318
      py      :     0.915352
      dz2     :     0.008717  d :     0.033070
      dxz     :     0.004786
      dyz     :     0.008192
      dx2y2   :     0.006151
      dxy     :     0.005224
  2 C s       :     3.060529  s :     3.060529
      pz      :     0.963340  p :     2.957153
      px      :     0.993203
      py      :     1.000611
      dz2     :     0.009049  d :     0.044827
      dxz     :     0.007374
      dyz     :     0.010820
      dx2y2   :     0.010048
      dxy     :     0.007536
  3 C s       :     3.167461  s :     3.167461
      pz      :     0.937898  p :     2.771080
      px      :     0.935111
      py      :     0.898070
      dz2     :     0.009594  d :     0.035722
      dxz     :     0.005344
      dyz     :     0.007511
      dx2y2   :     0.005474
      dxy     :     0.007799
  4 C s       :     3.081852  s :     3.081852
      pz      :     1.001101  p :     3.041620
      px      :     1.045664
      py      :     0.994855
      dz2     :     0.010014  d :     0.044704
      dxz     :     0.007193
      dyz     :     0.012513
      dx2y2   :     0.006060
      dxy     :     0.008924
  5 H s       :     0.947760  s :     0.947760
      pz      :     0.005170  p :     0.023374
      px      :     0.010073
      py      :     0.008131
  6 C s       :     2.882297  s :     2.882297
      pz      :     0.928981  p :     2.917874
      px      :     1.009800
      py      :     0.979092
      dz2     :     0.010500  d :     0.037678
      dxz     :     0.007431
      dyz     :     0.006188
      dx2y2   :     0.008649
      dxy     :     0.004911
  7 H s       :     0.957562  s :     0.957562
      pz      :     0.004220  p :     0.022913
      px      :     0.004172
      py      :     0.014521
  8 H s       :     0.981984  s :     0.981984
      pz      :     0.005911  p :     0.027637
      px      :     0.014842
      py      :     0.006884
  9 C s       :     3.089326  s :     3.089326
      pz      :     0.944454  p :     3.000931
      px      :     1.030740
      py      :     1.025738
      dz2     :     0.010719  d :     0.037488
      dxz     :     0.007995
      dyz     :     0.005935
      dx2y2   :     0.010282
      dxy     :     0.002556
 10 H s       :     0.952521  s :     0.952521
      pz      :     0.004197  p :     0.024209
      px      :     0.014659
      py      :     0.005353
 11 H s       :     0.950275  s :     0.950275
      pz      :     0.003802  p :     0.020289
      px      :     0.003899
      py      :     0.012588
 12 C s       :     3.028641  s :     3.028641
      pz      :     0.977331  p :     2.989280
      px      :     0.998122
      py      :     1.013827
      dz2     :     0.006214  d :     0.027136
      dxz     :     0.004528
      dyz     :     0.005512
      dx2y2   :     0.008943
      dxy     :     0.001940
 13 H s       :     0.943528  s :     0.943528
      pz      :     0.004782  p :     0.024018
      px      :     0.005499
      py      :     0.013738
 14 H s       :     0.927064  s :     0.927064
      pz      :     0.010367  p :     0.022250
      px      :     0.004644
      py      :     0.007239
 15 H s       :     0.947350  s :     0.947350
      pz      :     0.004683  p :     0.022024
      px      :     0.012830
      py      :     0.004511
 16 S s       :     5.847144  s :     5.847144
      pz      :     3.174351  p :     9.929158
      px      :     3.469104
      py      :     3.285704
      dz2     :     0.024378  d :     0.107330
      dxz     :     0.020032
      dyz     :     0.024220
      dx2y2   :     0.024778
      dxy     :     0.013923
 17 C s       :     3.135579  s :     3.135579
      pz      :     1.023950  p :     2.913786
      px      :     1.013868
      py      :     0.875968
      dz2     :     0.005606  d :     0.035765
      dxz     :     0.004994
      dyz     :     0.009430
      dx2y2   :     0.008083
      dxy     :     0.007653
 18 C s       :     3.153331  s :     3.153331
      pz      :     0.962768  p :     2.857223
      px      :     0.989770
      py      :     0.904685
      dz2     :     0.009757  d :     0.036259
      dxz     :     0.005597
      dyz     :     0.008056
      dx2y2   :     0.007118
      dxy     :     0.005731
 19 C s       :     3.048980  s :     3.048980
      pz      :     0.958202  p :     2.914561
      px      :     0.975237
      py      :     0.981123
      dz2     :     0.008889  d :     0.043786
      dxz     :     0.007133
      dyz     :     0.010268
      dx2y2   :     0.008356
      dxy     :     0.009140
 20 C s       :     3.100607  s :     3.100607
      pz      :     0.990483  p :     3.065031
      px      :     1.048631
      py      :     1.025917
      dz2     :     0.006727  d :     0.043396
      dxz     :     0.006856
      dyz     :     0.010730
      dx2y2   :     0.010349
      dxy     :     0.008735
 21 H s       :     0.963097  s :     0.963097
      pz      :     0.003922  p :     0.024729
      px      :     0.005400
      py      :     0.015406
 22 C s       :     2.974006  s :     2.974006
      pz      :     0.949687  p :     2.928564
      px      :     1.002192
      py      :     0.976685
      dz2     :     0.004361  d :     0.032314
      dxz     :     0.008441
      dyz     :     0.007718
      dx2y2   :     0.002648
      dxy     :     0.009145
 23 H s       :     0.938924  s :     0.938924
      pz      :     0.005205  p :     0.021643
      px      :     0.008181
      py      :     0.008258
 24 H s       :     0.950665  s :     0.950665
      pz      :     0.006164  p :     0.023720
      px      :     0.007608
      py      :     0.009948
 25 C s       :     3.069541  s :     3.069541
      pz      :     0.962348  p :     2.985076
      px      :     1.003604
      py      :     1.019123
      dz2     :     0.007277  d :     0.035287
      dxz     :     0.008284
      dyz     :     0.007136
      dx2y2   :     0.003112
      dxy     :     0.009479
 26 H s       :     0.952116  s :     0.952116
      pz      :     0.004178  p :     0.021044
      px      :     0.009122
      py      :     0.007744
 27 H s       :     0.953340  s :     0.953340
      pz      :     0.004855  p :     0.023483
      px      :     0.007148
      py      :     0.011480
 28 C s       :     2.995497  s :     2.995497
      pz      :     0.969713  p :     3.011571
      px      :     1.016059
      py      :     1.025800
      dz2     :     0.004952  d :     0.029193
      dxz     :     0.006113
      dyz     :     0.007914
      dx2y2   :     0.004441
      dxy     :     0.005774
 29 H s       :     0.946520  s :     0.946520
      pz      :     0.006895  p :     0.024457
      px      :     0.005406
      py      :     0.012156
 30 H s       :     0.939444  s :     0.939444
      pz      :     0.008697  p :     0.023157
      px      :     0.006310
      py      :     0.008150
 31 H s       :     0.949162  s :     0.949162
      pz      :     0.005137  p :     0.024658
      px      :     0.012162
      py      :     0.007359
 32 H s       :     0.931542  s :     0.931542
      pz      :     0.003756  p :     0.024188
      px      :     0.005406
      py      :     0.015026
 33 H s       :     0.900264  s :     0.900264
      pz      :     0.008327  p :     0.023319
      px      :     0.009247
      py      :     0.005745


                     *******************************
                     * LOEWDIN POPULATION ANALYSIS *
                     *******************************

----------------------
LOEWDIN ATOMIC CHARGES
----------------------
   0 S :    0.364486
   1 C :   -0.165365
   2 C :   -0.060408
   3 C :   -0.063992
   4 C :   -0.193881
   5 H :    0.036672
   6 C :   -0.012921
   7 H :    0.031077
   8 H :    0.014436
   9 C :   -0.038392
  10 H :    0.012326
  11 H :    0.029494
  12 C :   -0.066402
  13 H :    0.019979
  14 H :    0.031669
  15 H :    0.028419
  16 S :    0.407872
  17 C :   -0.204908
  18 C :   -0.072288
  19 C :   -0.055581
  20 C :   -0.184777
  21 H :    0.024296
  22 C :   -0.025435
  23 H :    0.035456
  24 H :    0.029380
  25 C :   -0.042471
  26 H :    0.026604
  27 H :    0.016318
  28 C :   -0.067415
  29 H :    0.025363
  30 H :    0.031795
  31 H :    0.020835
  32 H :    0.025670
  33 H :    0.042086

-------------------------------
LOEWDIN REDUCED ORBITAL CHARGES
-------------------------------
  0 S s       :     5.547644  s :     5.547644
      pz      :     3.381141  p :     9.972885
      px      :     3.540418
      py      :     3.051325
      dz2     :     0.017744  d :     0.114985
      dxz     :     0.012544
      dyz     :     0.035886
      dx2y2   :     0.016324
      dxy     :     0.032488
  1 C s       :     2.934817  s :     2.934817
      pz      :     1.031656  p :     3.152487
      px      :     1.079356
      py      :     1.041475
      dz2     :     0.020233  d :     0.078061
      dxz     :     0.012043
      dyz     :     0.019575
      dx2y2   :     0.013696
      dxy     :     0.012514
  2 C s       :     2.856938  s :     2.856938
      pz      :     1.025606  p :     3.092637
      px      :     1.015055
      py      :     1.051976
      dz2     :     0.019904  d :     0.110833
      dxz     :     0.018751
      dyz     :     0.028679
      dx2y2   :     0.023944
      dxy     :     0.019555
  3 C s       :     2.869088  s :     2.869088
      pz      :     1.047319  p :     3.100988
      px      :     1.021734
      py      :     1.031935
      dz2     :     0.024804  d :     0.093916
      dxz     :     0.014577
      dyz     :     0.020251
      dx2y2   :     0.014743
      dxy     :     0.019541
  4 C s       :     2.914788  s :     2.914788
      pz      :     1.084472  p :     3.174147
      px      :     1.057744
      py      :     1.031931
      dz2     :     0.023333  d :     0.104946
      dxz     :     0.018325
      dyz     :     0.030903
      dx2y2   :     0.012632
      dxy     :     0.019753
  5 H s       :     0.895671  s :     0.895671
      pz      :     0.014662  p :     0.067657
      px      :     0.028681
      py      :     0.024314
  6 C s       :     2.798790  s :     2.798790
      pz      :     1.008125  p :     3.117230
      px      :     1.062609
      py      :     1.046497
      dz2     :     0.027990  d :     0.096901
      dxz     :     0.019754
      dyz     :     0.013911
      dx2y2   :     0.022703
      dxy     :     0.012543
  7 H s       :     0.903673  s :     0.903673
      pz      :     0.013481  p :     0.065249
      px      :     0.012030
      py      :     0.039738
  8 H s       :     0.899310  s :     0.899310
      pz      :     0.020481  p :     0.086254
      px      :     0.043211
      py      :     0.022562
  9 C s       :     2.836379  s :     2.836379
      pz      :     1.003665  p :     3.111957
      px      :     1.064822
      py      :     1.043470
      dz2     :     0.026893  d :     0.090057
      dxz     :     0.019965
      dyz     :     0.012169
      dx2y2   :     0.024823
      dxy     :     0.006206
 10 H s       :     0.910312  s :     0.910312
      pz      :     0.016555  p :     0.077362
      px      :     0.043243
      py      :     0.017564
 11 H s       :     0.914478  s :     0.914478
      pz      :     0.010950  p :     0.056028
      px      :     0.010298
      py      :     0.034779
 12 C s       :     2.849250  s :     2.849250
      pz      :     1.035365  p :     3.149091
      px      :     1.048660
      py      :     1.065067
      dz2     :     0.015506  d :     0.068061
      dxz     :     0.011840
      dyz     :     0.014012
      dx2y2   :     0.021960
      dxy     :     0.004743
 13 H s       :     0.910848  s :     0.910848
      pz      :     0.014114  p :     0.069173
      px      :     0.015203
      py      :     0.039855
 14 H s       :     0.904645  s :     0.904645
      pz      :     0.030729  p :     0.063686
      px      :     0.012840
      py      :     0.020118
 15 H s       :     0.910740  s :     0.910740
      pz      :     0.013155  p :     0.060842
      px      :     0.036486
      py      :     0.011200
 16 S s       :     5.515998  s :     5.515998
      pz      :     3.176030  p :     9.943853
      px      :     3.456626
      py      :     3.311197
      dz2     :     0.030748  d :     0.132277
      dxz     :     0.025815
      dyz     :     0.030191
      dx2y2   :     0.031060
      dxy     :     0.014462
 17 C s       :     2.944007  s :     2.944007
      pz      :     1.088923  p :     3.178577
      px      :     1.064089
      py      :     1.025565
      dz2     :     0.010282  d :     0.082325
      dxz     :     0.011668
      dyz     :     0.022424
      dx2y2   :     0.018813
      dxy     :     0.019138
 18 C s       :     2.862748  s :     2.862748
      pz      :     1.033762  p :     3.114665
      px      :     1.026258
      py      :     1.054645
      dz2     :     0.024256  d :     0.094875
      dxz     :     0.014623
      dyz     :     0.023207
      dx2y2   :     0.018159
      dxy     :     0.014630
 19 C s       :     2.857531  s :     2.857531
      pz      :     1.022252  p :     3.087693
      px      :     1.001003
      py      :     1.064438
      dz2     :     0.021917  d :     0.110357
      dxz     :     0.016724
      dyz     :     0.027035
      dx2y2   :     0.022349
      dxy     :     0.022332
 20 C s       :     2.913546  s :     2.913546
      pz      :     1.016038  p :     3.167494
      px      :     1.069337
      py      :     1.082119
      dz2     :     0.015833  d :     0.103737
      dxz     :     0.014385
      dyz     :     0.026550
      dx2y2   :     0.025916
      dxy     :     0.021053
 21 H s       :     0.902060  s :     0.902060
      pz      :     0.013403  p :     0.073644
      px      :     0.017152
      py      :     0.043088
 22 C s       :     2.842226  s :     2.842226
      pz      :     1.018780  p :     3.103400
      px      :     1.034165
      py      :     1.050456
      dz2     :     0.009377  d :     0.079809
      dxz     :     0.021964
      dyz     :     0.019940
      dx2y2   :     0.005016
      dxy     :     0.023511
 23 H s       :     0.901676  s :     0.901676
      pz      :     0.016004  p :     0.062868
      px      :     0.024323
      py      :     0.022540
 24 H s       :     0.899484  s :     0.899484
      pz      :     0.019176  p :     0.071136
      px      :     0.023203
      py      :     0.028757
 25 C s       :     2.846140  s :     2.846140
      pz      :     1.014295  p :     3.112201
      px      :     1.038010
      py      :     1.059896
      dz2     :     0.016370  d :     0.084129
      dxz     :     0.021043
      dyz     :     0.016953
      dx2y2   :     0.006720
      dxy     :     0.023044
 26 H s       :     0.912762  s :     0.912762
      pz      :     0.013292  p :     0.060634
      px      :     0.027204
      py      :     0.020138
 27 H s       :     0.912093  s :     0.912093
      pz      :     0.016670  p :     0.071589
      px      :     0.021865
      py      :     0.033054
 28 C s       :     2.823992  s :     2.823992
      pz      :     1.031777  p :     3.168386
      px      :     1.063913
      py      :     1.072696
      dz2     :     0.012337  d :     0.075037
      dxz     :     0.017090
      dyz     :     0.020154
      dx2y2   :     0.011233
      dxy     :     0.014223
 29 H s       :     0.906372  s :     0.906372
      pz      :     0.019742  p :     0.068264
      px      :     0.015114
      py      :     0.033408
 30 H s       :     0.904585  s :     0.904585
      pz      :     0.025110  p :     0.063621
      px      :     0.017451
      py      :     0.021060
 31 H s       :     0.909595  s :     0.909595
      pz      :     0.015203  p :     0.069570
      px      :     0.034808
      py      :     0.019558
 32 H s       :     0.898058  s :     0.898058
      pz      :     0.013656  p :     0.076272
      px      :     0.017422
      py      :     0.045194
 33 H s       :     0.886674  s :     0.886674
      pz      :     0.024594  p :     0.071240
      px      :     0.026983
      py      :     0.019663


                      *****************************
                      * MAYER POPULATION ANALYSIS *
                      *****************************

  NA   - Mulliken gross atomic population
  ZA   - Total nuclear charge
  QA   - Mulliken gross atomic charge
  VA   - Mayer's total valence
  BVA  - Mayer's bonded valence
  FA   - Mayer's free valence

  ATOM       NA         ZA         QA         VA         BVA        FA
  0 S     15.9024    16.0000     0.0976     2.4366     2.4366    -0.0000
  1 C      6.1348     6.0000    -0.1348     3.8613     3.8613    -0.0000
  2 C      6.0625     6.0000    -0.0625     3.9959     3.9959    -0.0000
  3 C      5.9743     6.0000     0.0257     3.9346     3.9346     0.0000
  4 C      6.1682     6.0000    -0.1682     3.9293     3.9293    -0.0000
  5 H      0.9711     1.0000     0.0289     1.0032     1.0032    -0.0000
  6 C      5.8378     6.0000     0.1622     3.9417     3.9417     0.0000
  7 H      0.9805     1.0000     0.0195     0.9894     0.9894     0.0000
  8 H      1.0096     1.0000    -0.0096     0.9967     0.9967     0.0000
  9 C      6.1277     6.0000    -0.1277     4.0925     4.0925     0.0000
 10 H      0.9767     1.0000     0.0233     0.9831     0.9831     0.0000
 11 H      0.9706     1.0000     0.0294     0.9754     0.9754     0.0000
 12 C      6.0451     6.0000    -0.0451     3.9864     3.9864    -0.0000
 13 H      0.9675     1.0000     0.0325     0.9877     0.9877     0.0000
 14 H      0.9493     1.0000     0.0507     0.9848     0.9848    -0.0000
 15 H      0.9694     1.0000     0.0306     0.9918     0.9918    -0.0000
 16 S     15.8836    16.0000     0.1164     2.4890     2.4890    -0.0000
 17 C      6.0851     6.0000    -0.0851     3.8300     3.8300    -0.0000
 18 C      6.0468     6.0000    -0.0468     3.9885     3.9885     0.0000
 19 C      6.0073     6.0000    -0.0073     4.0523     4.0523    -0.0000
 20 C      6.2090     6.0000    -0.2090     3.9252     3.9252    -0.0000
 21 H      0.9878     1.0000     0.0122     0.9956     0.9956     0.0000
 22 C      5.9349     6.0000     0.0651     3.9501     3.9501     0.0000
 23 H      0.9606     1.0000     0.0394     0.9828     0.9828     0.0000
 24 H      0.9744     1.0000     0.0256     0.9980     0.9980     0.0000
 25 C      6.0899     6.0000    -0.0899     4.0756     4.0756    -0.0000
 26 H      0.9732     1.0000     0.0268     0.9785     0.9785     0.0000
 27 H      0.9768     1.0000     0.0232     0.9797     0.9797    -0.0000
 28 C      6.0363     6.0000    -0.0363     4.0045     4.0045    -0.0000
 29 H      0.9710     1.0000     0.0290     0.9900     0.9900     0.0000
 30 H      0.9626     1.0000     0.0374     0.9859     0.9859     0.0000
 31 H      0.9738     1.0000     0.0262     0.9903     0.9903    -0.0000
 32 H      0.9557     1.0000     0.0443     1.0071     1.0071     0.0000
 33 H      0.9236     1.0000     0.0764     0.9924     0.9924    -0.0000

  Mayer bond orders larger than 0.100000
B(  0-S ,  1-C ) :   1.1212 B(  0-S ,  4-C ) :   1.1287 B(  1-C ,  2-C ) :   1.6464 
B(  1-C , 32-H ) :   0.9688 B(  2-C ,  3-C ) :   1.2089 B(  2-C ,  6-C ) :   1.0239 
B(  3-C ,  4-C ) :   1.6346 B(  3-C ,  5-H ) :   0.9752 B(  4-C , 20-C ) :   1.0129 
B(  6-C ,  7-H ) :   0.9409 B(  6-C ,  8-H ) :   0.9240 B(  6-C ,  9-C ) :   1.0690 
B(  9-C , 10-H ) :   0.9618 B(  9-C , 11-H ) :   0.9594 B(  9-C , 12-C ) :   1.0732 
B( 12-C , 13-H ) :   0.9761 B( 12-C , 14-H ) :   0.9767 B( 12-C , 15-H ) :   0.9738 
B( 16-S , 17-C ) :   1.1578 B( 16-S , 20-C ) :   1.1510 B( 17-C , 18-C ) :   1.6072 
B( 17-C , 20-C ) :   0.1019 B( 17-C , 33-H ) :   0.9547 B( 18-C , 19-C ) :   1.2730 
B( 18-C , 21-H ) :   0.9760 B( 19-C , 20-C ) :   1.5936 B( 19-C , 22-C ) :   1.0483 
B( 22-C , 23-H ) :   0.9400 B( 22-C , 24-H ) :   0.9327 B( 22-C , 25-C ) :   1.0404 
B( 25-C , 26-H ) :   0.9574 B( 25-C , 27-H ) :   0.9591 B( 25-C , 28-C ) :   1.0884 
B( 28-C , 29-H ) :   0.9741 B( 28-C , 30-H ) :   0.9721 B( 28-C , 31-H ) :   0.9736 


-------
TIMINGS
-------

Total SCF time: 0 days 0 hours 0 min 18 sec 

Total time                  ....      18.143 sec
Sum of individual times     ....      17.310 sec  ( 95.4%)

Fock matrix formation       ....      15.699 sec  ( 86.5%)
  XC integration            ....       1.345 sec  (  8.6% of F)
    Basis function eval.    ....       0.130 sec  (  9.7% of XC)
    Density eval.           ....       0.091 sec  (  6.8% of XC)
    XC-Functional eval.     ....       0.104 sec  (  7.8% of XC)
    XC-Potential eval.      ....       0.109 sec  (  8.1% of XC)
Diagonalization             ....       0.136 sec  (  0.7%)
Density matrix formation    ....       0.023 sec  (  0.1%)
Population analysis         ....       0.054 sec  (  0.3%)
Initial guess               ....       0.166 sec  (  0.9%)
Orbital Transformation      ....       0.000 sec  (  0.0%)
Orbital Orthonormalization  ....       0.000 sec  (  0.0%)
DIIS solution               ....       0.150 sec  (  0.8%)
SOSCF solution              ....       0.106 sec  (  0.6%)
Grid generation             ....       0.977 sec  (  5.4%)


-------------------------------------------------------------------------------
                          DFT DISPERSION CORRECTION                            
                                                                               
                              DFTD3 V3.1  Rev 1                                
                              USING zero damping                               
-------------------------------------------------------------------------------
The omegaB97X-D3 functional is recognized. Fit by Chai et al.
Active option DFTDOPT                   ...         3   

molecular C6(AA) [au] = 14183.355605 


            DFT-D V3
 parameters
 s6 scaling factor         :     1.0000 
 rs6 scaling factor        :     1.2810 
 s8 scaling factor         :     1.0000 
 rs8 scaling factor        :     1.0940 
 Damping factor alpha6     :    14.0000 
 Damping factor alpha8     :    16.0000 
 ad hoc parameters k1-k3   :    16.0000     1.3333    -4.0000 

 Edisp/kcal,au: -8.629978592401  -0.013752744825 
 E6   /kcal   :  -3.932201935 
 E8   /kcal   :  -4.697776657 
 % E8         :  54.435554006 

-------------------------   ----------------
Dispersion correction           -0.013752745
-------------------------   ----------------


-------------------------   --------------------
FINAL SINGLE POINT ENERGY     -1339.859016621936
-------------------------   --------------------


                            ***************************************
                            *     ORCA property calculations      *
                            ***************************************

                                    ---------------------
                                    Active property flags
                                    ---------------------
   (+) Dipole Moment


------------------------------------------------------------------------------
                       ORCA ELECTRIC PROPERTIES CALCULATION
------------------------------------------------------------------------------

Dipole Moment Calculation                       ... on
Quadrupole Moment Calculation                   ... off
Polarizability Calculation                      ... off
GBWName                                         ... config_3102.gbw
Electron density file                           ... config_3102.scfp
The origin for moment calculation is the CENTER OF MASS  = (-204.984514, 59.455441 -38.234604)

-------------
DIPOLE MOMENT
-------------
                                X             Y             Z
Electronic contribution:     -0.97755      -6.81266      28.87207
Nuclear contribution   :      1.32055       7.00185     -29.50437
                        -----------------------------------------
Total Dipole Moment    :      0.34301       0.18919      -0.63230
                        -----------------------------------------
Magnitude (a.u.)       :      0.74380
Magnitude (Debye)      :      1.89060



--------------------
Rotational spectrum 
--------------------
 
Rotational constants in cm-1:     0.016734     0.008526     0.006582 
Rotational constants in MHz :   501.678065   255.597619   197.330465 

 Dipole components along the rotational axes: 
x,y,z [a.u.] :    -0.309672    -0.541076    -0.405688 
x,y,z [Debye]:    -0.787124    -1.375305    -1.031177 

 

Timings for individual modules:

Sum of individual times         ...       19.325 sec (=   0.322 min)
GTO integral calculation        ...        0.801 sec (=   0.013 min)   4.1 %
SCF iterations                  ...       18.525 sec (=   0.309 min)  95.9 %
                             ****ORCA TERMINATED NORMALLY****
TOTAL RUN TIME: 0 days 0 hours 0 minutes 20 seconds 30 msec
