
                                 *****************
                                 * O   R   C   A *
                                 *****************

           --- An Ab Initio, DFT and Semiempirical electronic structure package ---

                  #######################################################
                  #                        -***-                        #
                  #          Department of theory and spectroscopy      #
                  #               Directorship: Frank Neese             #
                  #        Max Planck Institute fuer Kohlenforschung    #
                  #                Kaiser Wilhelm Platz 1               #
                  #                 D-45470 Muelheim/Ruhr               #
                  #                      Germany                        #
                  #                                                     #
                  #                  All rights reserved                #
                  #                        -***-                        #
                  #######################################################


                         Program Version 4.2.1 -  RELEASE  -


 With contributions from (in alphabetic order):
   Daniel Aravena         : Magnetic Suceptibility
   Michael Atanasov       : Ab Initio Ligand Field Theory (pilot matlab implementation)
   Alexander A. Auer      : GIAO ZORA, VPT2
   Ute Becker             : Parallelization
   Giovanni Bistoni       : ED, misc. LED, open-shell LED, HFLD
   Martin Brehm           : Molecular dynamics
   Dmytro Bykov           : SCF Hessian
   Vijay G. Chilkuri      : MRCI spin determinant printing, contributions to CSF-ICE
   Dipayan Datta          : RHF DLPNO-CCSD density
   Achintya Kumar Dutta   : EOM-CC, STEOM-CC
   Dmitry Ganyushin       : Spin-Orbit,Spin-Spin,Magnetic field MRCI
   Miquel Garcia          : C-PCM Hessian, Gaussian charge scheme
   Yang Guo               : DLPNO-NEVPT2, CIM, IAO-localization
   Andreas Hansen         : Spin unrestricted coupled pair/coupled cluster methods
   Benjamin Helmich-Paris : CASSCF linear response (MC-RPA)
   Lee Huntington         : MR-EOM, pCC
   Robert Izsak           : Overlap fitted RIJCOSX, COSX-SCS-MP3, EOM
   Christian Kollmar      : KDIIS, OOCD, Brueckner-CCSD(T), CCSD density
   Simone Kossmann        : Meta GGA functionals, TD-DFT gradient, OOMP2, MP2 Hessian
   Martin Krupicka        : AUTO-CI
   Lucas Lang             : DCDCAS
   Dagmar Lenk            : GEPOL surface, SMD
   Dimitrios Liakos       : Extrapolation schemes; Compound Job, initial MDCI parallelization
   Dimitrios Manganas     : Further ROCIS development; embedding schemes
   Dimitrios Pantazis     : SARC Basis sets
   Taras Petrenko         : DFT Hessian,TD-DFT gradient, ASA, ECA, R-Raman, ABS, FL, XAS/XES, NRVS
   Peter Pinski           : DLPNO-MP2, DLPNO-MP2 Gradient
   Christoph Reimann      : Effective Core Potentials
   Marius Retegan         : Local ZFS, SOC
   Christoph Riplinger    : Optimizer, TS searches, QM/MM, DLPNO-CCSD(T), (RO)-DLPNO pert. Triples
   Tobias Risthaus        : Range-separated hybrids, TD-DFT gradient, RPA, STAB
   Michael Roemelt        : Original ROCIS implementation
   Masaaki Saitow         : Open-shell DLPNO-CCSD energy and density
   Barbara Sandhoefer     : DKH picture change effects
   Avijit Sen             : IP-ROCIS
   Kantharuban Sivalingam : CASSCF convergence, NEVPT2, FIC-MRCI
   Bernardo de Souza      : ESD, SOC TD-DFT
   Georgi Stoychev        : AutoAux, RI-MP2 NMR
   Willem Van den Heuvel  : Paramagnetic NMR
   Boris Wezisla          : Elementary symmetry handling
   Frank Wennmohs         : Technical directorship


 We gratefully acknowledge several colleagues who have allowed us to
 interface, adapt or use parts of their codes:
   Stefan Grimme, W. Hujo, H. Kruse,             : VdW corrections, initial TS optimization,
                  C. Bannwarth                     DFT functionals, gCP, sTDA/sTD-DF
   Ed Valeev, F. Pavosevic, A. Kumar             : LibInt (2-el integral package), F12 methods
   Garnet Chan, S. Sharma, J. Yang, R. Olivares  : DMRG
   Ulf Ekstrom                                   : XCFun DFT Library
   Mihaly Kallay                                 : mrcc  (arbitrary order and MRCC methods)
   Andreas Klamt, Michael Diedenhofen            : otool_cosmo (COSMO solvation model)
   Jiri Pittner, Ondrej Demel                    : Mk-CCSD
   Frank Weinhold                                : gennbo (NPA and NBO analysis)
   Christopher J. Cramer and Donald G. Truhlar   : smd solvation model
   Lars Goerigk                                  : TD-DFT with DH, B97 family of functionals
   V. Asgeirsson, H. Jonsson                     : NEB implementation
   FAccTs GmbH                                   : IRC, NEB, NEB-TS, Multilevel, MM, QM/MM, CI optimization
   S Lehtola, MJT Oliveira, MAL Marques          : LibXC Library


 Your calculation uses the libint2 library for the computation of 2-el integrals
 For citations please refer to: http://libint.valeyev.net

 Your ORCA version has been built with support for libXC version: 4.2.3
 For citations please refer to: https://tddft.org/programs/libxc/

 This ORCA versions uses:
   CBLAS   interface :  Fast vector & matrix operations
   LAPACKE interface :  Fast linear algebra routines
   SCALAPACK package :  Parallel linear algebra routines


Your calculation utilizes the atom-pairwise dispersion correction
with the zero-damping scheme (D30)
Cite in your paper:
S.Grimme, J.Antony, S.Ehrlich and H.Krieg, J.Chem.Phys., 132, (2010), 154104 
   

XCFun DFT library Copyright 2009-2010 Ulf Ekstrom and contributors.
See http://admol.org/xcfun for more information. This is free soft-
ware; see the source code for copying conditions. There is ABSOLUTELY
NO WARRANTY; not even for MERCHANTABILITY or FITNESS FOR A PARTICULAR
PURPOSE. For details see the documentation. Scientific users of this 
library should cite U. Ekstrom, L. Visscher, R. Bast, A. J. Thorvald-
sen and K. Ruud; J.Chem.Theor.Comp. 2010, DOI: 10.1021/ct100117s
XCFun Version 0.99 
----- Orbital basis set information -----
Your calculation utilizes the basis: def2-SVP
   F. Weigend and R. Ahlrichs, Phys. Chem. Chem. Phys. 7, 3297 (2005).

================================================================================
                                        WARNINGS
                       Please study these warnings very carefully!
================================================================================


INFO   : the flag for use of LIBINT has been found!

================================================================================
                                       INPUT FILE
================================================================================
NAME = config_4515.inp
|  1> ! wB97X-D3 SP def2-SVP
|  2> %pal
|  3> nprocs 24
|  4> end
|  5> 
|  6> * xyz 0 1
|  7> S 	 -100.374 	 37.5121 	 -89.061 	 
|  8> C 	 -101.326 	 36.4417 	 -88.0669 	 
|  9> C 	 -102.166 	 37.1505 	 -87.2381 	 
| 10> C 	 -101.99 	 38.5508 	 -87.3706 	 
| 11> C 	 -101.106 	 38.8987 	 -88.3378 	 
| 12> H 	 -102.594 	 39.3525 	 -86.922 	 
| 13> C 	 -103.209 	 36.6224 	 -86.2757 	 
| 14> H 	 -103.423 	 35.5793 	 -86.4859 	 
| 15> H 	 -104.088 	 37.1634 	 -86.4589 	 
| 16> C 	 -102.712 	 36.8774 	 -84.8058 	 
| 17> H 	 -102.713 	 37.9613 	 -84.6309 	 
| 18> H 	 -103.599 	 36.4734 	 -84.131 	 
| 19> C 	 -101.418 	 36.2153 	 -84.4708 	 
| 20> H 	 -101.633 	 35.1646 	 -84.378 	 
| 21> H 	 -100.685 	 36.4086 	 -85.1912 	 
| 22> H 	 -101.033 	 36.3922 	 -83.4702 	 
| 23> S 	 -99.0548 	 40.4124 	 -89.5421 	 
| 24> C 	 -98.9835 	 42.1582 	 -89.343 	 
| 25> C 	 -100.259 	 42.5821 	 -88.9489 	 
| 26> C 	 -101.236 	 41.5608 	 -88.5853 	 
| 27> C 	 -100.68 	 40.2486 	 -88.7296 	 
| 28> H 	 -100.476 	 43.6276 	 -88.9381 	 
| 29> C 	 -102.721 	 41.8129 	 -88.1347 	 
| 30> H 	 -102.897 	 42.8672 	 -88.1771 	 
| 31> H 	 -103.011 	 41.5422 	 -87.1321 	 
| 32> C 	 -103.756 	 41.2403 	 -89.1373 	 
| 33> H 	 -103.822 	 40.1293 	 -89.0285 	 
| 34> H 	 -103.443 	 41.2541 	 -90.1924 	 
| 35> C 	 -105.163 	 41.849 	 -89.0251 	 
| 36> H 	 -105.87 	 41.2482 	 -89.644 	 
| 37> H 	 -105.119 	 42.9084 	 -89.3966 	 
| 38> H 	 -105.503 	 41.7681 	 -87.9765 	 
| 39> H 	 -101.41 	 35.3416 	 -88.225 	 
| 40> H 	 -98.3152 	 42.8289 	 -89.7849 	 
| 41> *
| 42> 
| 43>                          ****END OF INPUT****
================================================================================

                       ****************************
                       * Single Point Calculation *
                       ****************************

---------------------------------
CARTESIAN COORDINATES (ANGSTROEM)
---------------------------------
  S    -100.374000   37.512100  -89.061000
  C    -101.326000   36.441700  -88.066900
  C    -102.166000   37.150500  -87.238100
  C    -101.990000   38.550800  -87.370600
  C    -101.106000   38.898700  -88.337800
  H    -102.594000   39.352500  -86.922000
  C    -103.209000   36.622400  -86.275700
  H    -103.423000   35.579300  -86.485900
  H    -104.088000   37.163400  -86.458900
  C    -102.712000   36.877400  -84.805800
  H    -102.713000   37.961300  -84.630900
  H    -103.599000   36.473400  -84.131000
  C    -101.418000   36.215300  -84.470800
  H    -101.633000   35.164600  -84.378000
  H    -100.685000   36.408600  -85.191200
  H    -101.033000   36.392200  -83.470200
  S    -99.054800   40.412400  -89.542100
  C    -98.983500   42.158200  -89.343000
  C    -100.259000   42.582100  -88.948900
  C    -101.236000   41.560800  -88.585300
  C    -100.680000   40.248600  -88.729600
  H    -100.476000   43.627600  -88.938100
  C    -102.721000   41.812900  -88.134700
  H    -102.897000   42.867200  -88.177100
  H    -103.011000   41.542200  -87.132100
  C    -103.756000   41.240300  -89.137300
  H    -103.822000   40.129300  -89.028500
  H    -103.443000   41.254100  -90.192400
  C    -105.163000   41.849000  -89.025100
  H    -105.870000   41.248200  -89.644000
  H    -105.119000   42.908400  -89.396600
  H    -105.503000   41.768100  -87.976500
  H    -101.410000   35.341600  -88.225000
  H    -98.315200   42.828900  -89.784900

----------------------------
CARTESIAN COORDINATES (A.U.)
----------------------------
  NO LB      ZA    FRAG     MASS         X           Y           Z
   0 S    16.0000    0    32.060  -189.679371   70.887596  -168.300899
   1 C     6.0000    0    12.011  -191.478390   68.864833  -166.422322
   2 C     6.0000    0    12.011  -193.065760   70.204271  -164.856117
   3 C     6.0000    0    12.011  -192.733168   72.850454  -165.106506
   4 C     6.0000    0    12.011  -191.062650   73.507890  -166.934249
   5 H     1.0000    0     1.008  -193.874563   74.365448  -164.258775
   6 C     6.0000    0    12.011  -195.036745   69.206306  -163.037445
   7 H     1.0000    0     1.008  -195.441146   67.235133  -163.434665
   8 H     1.0000    0     1.008  -196.697814   70.228648  -163.383643
   9 C     6.0000    0    12.011  -194.097551   69.688187  -160.259737
  10 H     1.0000    0     1.008  -194.099440   71.736461  -159.929223
  11 H     1.0000    0     1.008  -195.773738   68.924737  -158.984549
  12 C     6.0000    0    12.011  -191.652245   68.436999  -159.626678
  13 H     1.0000    0     1.008  -192.058536   66.451464  -159.451312
  14 H     1.0000    0     1.008  -190.267076   68.802283  -160.988037
  15 H     1.0000    0     1.008  -190.924700   68.771291  -157.735818
  16 S    16.0000    0    32.060  -187.186444   76.368368  -169.210046
  17 C     6.0000    0    12.011  -187.051707   79.667452  -168.833802
  18 C     6.0000    0    12.011  -189.462052   80.468507  -168.089061
  19 C     6.0000    0    12.011  -191.308315   78.538530  -167.401956
  20 C     6.0000    0    12.011  -190.257627   76.058831  -167.674644
  21 H     1.0000    0     1.008  -189.872123   82.444216  -168.068652
  22 C     6.0000    0    12.011  -194.114558   79.014930  -166.550446
  23 H     1.0000    0     1.008  -194.447150   81.007268  -166.630570
  24 H     1.0000    0     1.008  -194.662579   78.503381  -164.655806
  25 C     6.0000    0    12.011  -196.070425   77.932873  -168.445085
  26 H     1.0000    0     1.008  -196.195147   75.833387  -168.239483
  27 H     1.0000    0     1.008  -195.478940   77.958951  -170.438935
  28 C     6.0000    0    12.011  -198.729269   79.083149  -168.233058
  29 H     1.0000    0     1.008  -200.065306   77.947802  -169.402610
  30 H     1.0000    0     1.008  -198.646121   81.085125  -168.935091
  31 H     1.0000    0     1.008  -199.371776   78.930270  -166.251491
  32 H     1.0000    0     1.008  -191.637127   66.785945  -166.721088
  33 H     1.0000    0     1.008  -185.788803   80.934892  -169.668872

--------------------------------
INTERNAL COORDINATES (ANGSTROEM)
--------------------------------
 S      0   0   0     0.000000000000     0.00000000     0.00000000
 C      1   0   0     1.743644163813     0.00000000     0.00000000
 C      2   1   0     1.376556166671   111.12091935     0.00000000
 C      3   2   1     1.417523311978   112.12377247   357.34762280
 C      4   3   2     1.355716139168   113.64972096     4.12280776
 H      4   3   2     1.099445701251   127.87762714   172.60911847
 C      3   2   1     1.514249771339   128.56462976   176.32790926
 H      7   3   2     1.085374428481   110.35830042   344.97848878
 H      7   3   2     1.048276795508   106.64878088   228.78511111
 C      7   3   2     1.572463039311   108.65384996   110.05526434
 H     10   7   3     1.097920862358   107.98198518    67.75435416
 H     10   7   3     1.185470387652   103.90691591   177.98580591
 C     10   7   3     1.491655928825   114.33918204   300.01345407
 H     13  10   7     1.076479135887   106.22081930   287.01157059
 H     13  10   7     1.045767684527   111.79516950    49.85318931
 H     13  10   7     1.086608931493   116.22569856   178.48242386
 S      5   4   3     2.819405543727   156.47688395   216.78312771
 C     17   5   4     1.758562520924   120.93909790   322.33360313
 C     18  17   5     1.400680645258   107.18011454   340.42245077
 C     19  18  17     1.459379200208   117.90071465     9.84515753
 C     20  19  18     1.432420095503   110.86273077   359.01491068
 H     19  18  17     1.067837014717   118.96050746   190.52162776
 C     20  19  18     1.572202203917   126.26515565   180.82916804
 H     23  20  19     1.069729989296   107.58242649     2.02774700
 H     23  20  19     1.078232465658   118.70398733   244.60184093
 C     23  20  19     1.550581349043   112.70200374   115.13173133
 H     26  23  20     1.118264029646   110.08218897    76.09645900
 H     26  23  20     1.100634112682   115.17557934   327.67663264
 C     26  23  20     1.537125085997   114.68019918   199.97151781
 H     29  26  23     1.115278821641   109.05205632   190.46832400
 H     29  26  23     1.123510841069   108.26536763    70.26152012
 H     29  26  23     1.105308450162   108.77365926   306.80868866
 H      2   1   3     1.114572393342   124.48511782   167.84311995
 H     18  17   5     1.044863144149   127.97325397   184.25283460

---------------------------
INTERNAL COORDINATES (A.U.)
---------------------------
 S      0   0   0     0.000000000000     0.00000000     0.00000000
 C      1   0   0     3.295009944617     0.00000000     0.00000000
 C      2   1   0     2.601314162969   111.12091935     0.00000000
 C      3   2   1     2.678730848087   112.12377247   357.34762280
 C      4   3   2     2.561932218364   113.64972096     4.12280776
 H      4   3   2     2.077651274482   127.87762714   172.60911847
 C      3   2   1     2.861517366183   128.56462976   176.32790926
 H      7   3   2     2.051060422590   110.35830042   344.97848878
 H      7   3   2     1.980956056054   106.64878088   228.78511111
 C      7   3   2     2.971524500012   108.65384996   110.05526434
 H     10   7   3     2.074769746574   107.98198518    67.75435416
 H     10   7   3     2.240214372536   103.90691591   177.98580591
 C     10   7   3     2.818821191520   114.33918204   300.01345407
 H     13  10   7     2.034250755707   106.22081930   287.01157059
 H     13  10   7     1.976214523460   111.79516950    49.85318931
 H     13  10   7     2.053393295194   116.22569856   178.48242386
 S      5   4   3     5.327904338104   156.47688395   216.78312771
 C     17   5   4     3.323201553925   120.93909790   322.33360313
 C     18  17   5     2.646902820621   107.18011454   340.42245077
 C     19  18  17     2.757827013934   117.90071465     9.84515753
 C     20  19  18     2.706881689225   110.86273077   359.01491068
 H     19  18  17     2.017919513479   118.96050746   190.52162776
 C     20  19  18     2.971031592550   126.26515565   180.82916804
 H     23  20  19     2.021496717013   107.58242649     2.02774700
 H     23  20  19     2.037564068797   118.70398733   244.60184093
 C     23  20  19     2.930174098057   112.70200374   115.13173133
 H     26  23  20     2.113212761446   110.08218897    76.09645900
 H     26  23  20     2.079897046621   115.17557934   327.67663264
 C     26  23  20     2.904745446114   114.68019918   199.97151781
 H     29  26  23     2.107571535863   109.05205632   190.46832400
 H     29  26  23     2.123127798112   108.26536763    70.26152012
 H     29  26  23     2.088730264316   108.77365926   306.80868866
 H      2   1   3     2.106236579845   124.48511782   167.84311995
 H     18  17   5     1.974505189869   127.97325397   184.25283460

---------------------
BASIS SET INFORMATION
---------------------
There are 3 groups of distinct atoms

 Group   1 Type S   : 10s7p1d contracted to 4s3p1d pattern {5311/511/1}
 Group   2 Type C   : 7s4p1d contracted to 3s2p1d pattern {511/31/1}
 Group   3 Type H   : 4s1p contracted to 2s1p pattern {31/1}

Atom   0S    basis set group =>   1
Atom   1C    basis set group =>   2
Atom   2C    basis set group =>   2
Atom   3C    basis set group =>   2
Atom   4C    basis set group =>   2
Atom   5H    basis set group =>   3
Atom   6C    basis set group =>   2
Atom   7H    basis set group =>   3
Atom   8H    basis set group =>   3
Atom   9C    basis set group =>   2
Atom  10H    basis set group =>   3
Atom  11H    basis set group =>   3
Atom  12C    basis set group =>   2
Atom  13H    basis set group =>   3
Atom  14H    basis set group =>   3
Atom  15H    basis set group =>   3
Atom  16S    basis set group =>   1
Atom  17C    basis set group =>   2
Atom  18C    basis set group =>   2
Atom  19C    basis set group =>   2
Atom  20C    basis set group =>   2
Atom  21H    basis set group =>   3
Atom  22C    basis set group =>   2
Atom  23H    basis set group =>   3
Atom  24H    basis set group =>   3
Atom  25C    basis set group =>   2
Atom  26H    basis set group =>   3
Atom  27H    basis set group =>   3
Atom  28C    basis set group =>   2
Atom  29H    basis set group =>   3
Atom  30H    basis set group =>   3
Atom  31H    basis set group =>   3
Atom  32H    basis set group =>   3
Atom  33H    basis set group =>   3


           ************************************************************
           *        Program running with 24 parallel MPI-processes    *
           *              working on a common directory               *
           ************************************************************
------------------------------------------------------------------------------
                           ORCA GTO INTEGRAL CALCULATION
------------------------------------------------------------------------------

                         BASIS SET STATISTICS AND STARTUP INFO

 # of primitive gaussian shells          ...  294
 # of primitive gaussian functions       ...  534
 # of contracted shells                  ...  154
 # of contracted basis functions         ...  322
 Highest angular momentum                ...    2
 Maximum contraction depth               ...    5
 Integral package used                   ... LIBINT
 Integral threshhold            Thresh   ...  1.000e-10
 Primitive cut-off              TCut     ...  1.000e-11


------------------------------ INTEGRAL EVALUATION ----------------------------


 * One electron integrals 
 Pre-screening matrix                    ... done
 Shell pair data                         ... done (   0.003 sec)



           ************************************************************
           *        Program running with 24 parallel MPI-processes    *
           *              working on a common directory               *
           ************************************************************
-------------------------------------------------------------------------------
                                 ORCA SCF
-------------------------------------------------------------------------------

------------
SCF SETTINGS
------------
Hamiltonian:
 Density Functional     Method          .... DFT(GTOs)
 Exchange Functional    Exchange        .... WB97X-D3
 Correlation Functional Correlation     .... WB97X-D3
 Gradients option       PostSCFGGA      .... off
 Hybrid DFT is turned on
   Fraction HF Exchange ScalHFX         ....  0.195728
   Scaling of DF-GGA-X  ScalDFX         ....  0.000000
   Scaling of DF-GGA-C  ScalDFC         ....  1.000000
   Scaling of DF-LDA-C  ScalLDAC        ....  1.000000
   Perturbative correction              ....  0.000000
   Density functional embedding theory  .... OFF
 Long-range corrected/Screened/Range-Separated Hybrid DFT is turned on
   Amount of maximum screened exact exchange              ....  0.804272
   Range separation parameter mu (erf(mu*r12)/r12)        ....  0.250000


General Settings:
 Integral files         IntName         .... config_4515
 Hartree-Fock type      HFTyp           .... RHF
 Total Charge           Charge          ....    0
 Multiplicity           Mult            ....    1
 Number of Electrons    NEL             ....  134
 Basis Dimension        Dim             ....  322
 Nuclear Repulsion      ENuc            ....   1291.0129511967 Eh

Convergence Acceleration:
 DIIS                   CNVDIIS         .... on
   Start iteration      DIISMaxIt       ....    12
   Startup error        DIISStart       ....  0.200000
   # of expansion vecs  DIISMaxEq       ....     5
   Bias factor          DIISBfac        ....   1.050
   Max. coefficient     DIISMaxC        ....  10.000
 Newton-Raphson         CNVNR           .... off
 SOSCF                  CNVSOSCF        .... on
   Start iteration      SOSCFMaxIt      ....   150
   Startup grad/error   SOSCFStart      ....  0.003300
 Level Shifting         CNVShift        .... on
   Level shift para.    LevelShift      ....    0.2500
   Turn off err/grad.   ShiftErr        ....    0.0010
 Zerner damping         CNVZerner       .... off
 Static damping         CNVDamp         .... on
   Fraction old density DampFac         ....    0.7000
   Max. Damping (<1)    DampMax         ....    0.9800
   Min. Damping (>=0)   DampMin         ....    0.0000
   Turn off err/grad.   DampErr         ....    0.1000
 Fernandez-Rico         CNVRico         .... off

SCF Procedure:
 Maximum # iterations   MaxIter         ....   125
 SCF integral mode      SCFMode         .... Direct
   Integral package                     .... LIBINT
 Reset frequency        DirectResetFreq ....    20
 Integral Threshold     Thresh          ....  1.000e-10 Eh
 Primitive CutOff       TCut            ....  1.000e-11 Eh

Convergence Tolerance:
 Convergence Check Mode ConvCheckMode   .... Total+1el-Energy
 Convergence forced     ConvForced      .... 0
 Energy Change          TolE            ....  1.000e-06 Eh
 1-El. energy change                    ....  1.000e-03 Eh
 Orbital Gradient       TolG            ....  5.000e-05
 Orbital Rotation angle TolX            ....  5.000e-05
 DIIS Error             TolErr          ....  1.000e-06


Diagonalization of the overlap matrix:
Smallest eigenvalue                        ... 5.779e-04
Time for diagonalization                   ...    0.014 sec
Threshold for overlap eigenvalues          ... 1.000e-08
Number of eigenvalues below threshold      ... 0
Time for construction of square roots      ...    0.025 sec
Total time needed                          ...    0.040 sec

-------------------
DFT GRID GENERATION
-------------------

General Integration Accuracy     IntAcc      ...  4.340
Radial Grid Type                 RadialGrid  ... Gauss-Chebyshev
Angular Grid (max. acc.)         AngularGrid ... Lebedev-110
Angular grid pruning method      GridPruning ... 3 (G Style)
Weight generation scheme         WeightScheme... Becke
Basis function cutoff            BFCut       ...    1.0000e-10
Integration weight cutoff        WCut        ...    1.0000e-14
Grids for H and He will be reduced by one unit

# of grid points (after initial pruning)     ...  41088 (   0.0 sec)
# of grid points (after weights+screening)   ...  36938 (   0.0 sec)
nearest neighbour list constructed           ...    0.0 sec
Grid point re-assignment to atoms done       ...    0.0 sec
Grid point division into batches done        ...    0.0 sec
Reduced shell lists constructed in    0.1 sec

Total number of grid points                  ...    36938
Total number of batches                      ...      593
Average number of points per batch           ...       62
Average number of grid points per atom       ...     1086
Average number of shells per batch           ...    72.85 (47.30%)
Average number of basis functions per batch  ...   143.69 (44.62%)
Average number of large shells per batch     ...    47.00 (64.52%)
Average number of large basis fcns per batch ...    97.31 (67.72%)
Maximum spatial batch extension              ...  19.66, 11.43, 19.71 au
Average spatial batch extension              ...   0.18,  0.15,  0.17 au

Time for grid setup =    0.147 sec

------------------------------
INITIAL GUESS: MODEL POTENTIAL
------------------------------
Loading Hartree-Fock densities                     ... done
Calculating cut-offs                               ... done
Setting up the integral package                    ... done
Initializing the effective Hamiltonian             ... done
Starting the Coulomb interaction                   ... done (   0.0 sec)
Reading the grid                                   ... done
Mapping shells                                     ... done
Starting the XC term evaluation                    ... done (   0.0 sec)
  promolecular density results
     # of electrons  =    134.000095166
     EX              =   -126.676128634
     EC              =     -4.614953768
     EX+EC           =   -131.291082402
Transforming the Hamiltonian                       ... done (   0.0 sec)
Diagonalizing the Hamiltonian                      ... done (   0.0 sec)
Back transforming the eigenvectors                 ... done (   0.0 sec)
Now organizing SCF variables                       ... done
                      ------------------
                      INITIAL GUESS DONE (   0.3 sec)
                      ------------------
--------------
SCF ITERATIONS
--------------
ITER       Energy         Delta-E        Max-DP      RMS-DP      [F,P]     Damp
               ***  Starting incremental Fock matrix formation  ***
  0  -1339.4355490520   0.000000000000 0.06846281  0.00154425  0.1684309 0.7000
  1  -1339.6162335165  -0.180684464580 0.04570337  0.00112439  0.1010931 0.7000
                               ***Turning on DIIS***
  2  -1339.7031106985  -0.086877181955 0.07929746  0.00212470  0.0519587 0.0000
  3  -1339.8346392626  -0.131528564142 0.03971211  0.00094067  0.0458242 0.0000
  4  -1339.8631537326  -0.028514469939 0.00733543  0.00019100  0.0075943 0.0000
                      *** Initiating the SOSCF procedure ***
                           *** Shutting down DIIS ***
                      *** Re-Reading the Fockian *** 
                      *** Removing any level shift *** 
ITER      Energy       Delta-E        Grad      Rot      Max-DP    RMS-DP
  5  -1339.86402093  -0.0008671947  0.001717  0.001717  0.003088  0.000093
               *** Restarting incremental Fock matrix formation ***
  6  -1339.86420701  -0.0001860820  0.001510  0.004323  0.002161  0.000061
  7  -1339.86427387  -0.0000668625  0.000847  0.005422  0.002881  0.000060
  8  -1339.86429167  -0.0000177958  0.000381  0.000784  0.000855  0.000018
  9  -1339.86429627  -0.0000046065  0.000145  0.000352  0.000273  0.000009
                 **** Energy Check signals convergence ****
              ***Rediagonalizing the Fockian in SOSCF/NRSCF***

               *****************************************************
               *                     SUCCESS                       *
               *           SCF CONVERGED AFTER  10 CYCLES          *
               *****************************************************

Setting up the final grid:

General Integration Accuracy     IntAcc      ...  4.670
Radial Grid Type                 RadialGrid  ... Gauss-Chebyshev
Angular Grid (max. acc.)         AngularGrid ... Lebedev-302
Angular grid pruning method      GridPruning ... 3 (G Style)
Weight generation scheme         WeightScheme... Becke
Basis function cutoff            BFCut       ...    1.0000e-10
Integration weight cutoff        WCut        ...    1.0000e-14
Grids for H and He will be reduced by one unit

# of grid points (after initial pruning)     ... 161752 (   0.0 sec)
# of grid points (after weights+screening)   ... 142575 (   0.1 sec)
nearest neighbour list constructed           ...    0.0 sec
Grid point re-assignment to atoms done       ...    0.0 sec
Grid point division into batches done        ...    0.5 sec
Reduced shell lists constructed in    0.5 sec

Total number of grid points                  ...   142575
Total number of batches                      ...     2243
Average number of points per batch           ...       63
Average number of grid points per atom       ...     4193
Average number of shells per batch           ...    67.32 (43.71%)
Average number of basis functions per batch  ...   132.03 (41.00%)
Average number of large shells per batch     ...    41.82 (62.13%)
Average number of large basis fcns per batch ...    86.12 (65.22%)
Maximum spatial batch extension              ...  15.51, 11.79, 14.83 au
Average spatial batch extension              ...   0.11,  0.10,  0.11 au

Final grid set up in    0.9 sec
Final integration                            ... done (   0.3 sec)
Change in XC energy                          ...     0.008098752
Integrated number of electrons               ...   133.999767050
Previous integrated no of electrons          ...   134.007225584

----------------
TOTAL SCF ENERGY
----------------

Total Energy       :        -1339.85619790 Eh          -36459.34070 eV

Components:
Nuclear Repulsion  :         1291.01295120 Eh           35130.24839 eV
Electronic Energy  :        -2630.86914909 Eh          -71589.58909 eV
One Electron Energy:        -4398.58201887 Eh         -119691.50173 eV
Two Electron Energy:         1767.71286978 Eh           48101.91264 eV

Virial components:
Potential Energy   :        -2671.04948719 Eh          -72682.95168 eV
Kinetic Energy     :         1331.19328930 Eh           36223.61097 eV
Virial Ratio       :            2.00650763


DFT components:
N(Alpha)           :       66.999883524856 electrons
N(Beta)            :       66.999883524856 electrons
N(Total)           :      133.999767049712 electrons
E(XC)              :      -94.196800070125 Eh       
DFET-embed. en.    :        0.000000000000 Eh       

---------------
SCF CONVERGENCE
---------------

  Last Energy change         ...   -3.7584e-07  Tolerance :   1.0000e-06
  Last MAX-Density change    ...    1.7100e-04  Tolerance :   1.0000e-05
  Last RMS-Density change    ...    3.6535e-06  Tolerance :   1.0000e-06
  Last Orbital Gradient      ...    7.4459e-05  Tolerance :   5.0000e-05
  Last Orbital Rotation      ...    2.0746e-04  Tolerance :   5.0000e-05

             **** THE GBW FILE WAS UPDATED (config_4515.gbw) ****
             **** DENSITY FILE WAS UPDATED (config_4515.scfp) ****
             **** ENERGY FILE WAS UPDATED (config_4515.en.tmp) ****
             **** THE GBW FILE WAS UPDATED (config_4515.gbw) ****
             **** DENSITY FILE WAS UPDATED (config_4515.scfp) ****
----------------
ORBITAL ENERGIES
----------------

  NO   OCC          E(Eh)            E(eV) 
   0   2.0000     -88.966536     -2420.9025 
   1   2.0000     -88.965490     -2420.8741 
   2   2.0000     -10.341602      -281.4093 
   3   2.0000     -10.330289      -281.1015 
   4   2.0000     -10.319672      -280.8126 
   5   2.0000     -10.318853      -280.7903 
   6   2.0000     -10.316545      -280.7275 
   7   2.0000     -10.300936      -280.3027 
   8   2.0000     -10.300830      -280.2998 
   9   2.0000     -10.300572      -280.2928 
  10   2.0000     -10.296323      -280.1772 
  11   2.0000     -10.291878      -280.0562 
  12   2.0000     -10.290953      -280.0311 
  13   2.0000     -10.287892      -279.9478 
  14   2.0000     -10.287495      -279.9370 
  15   2.0000     -10.265970      -279.3512 
  16   2.0000      -8.081985      -219.9220 
  17   2.0000      -8.078900      -219.8380 
  18   2.0000      -6.040577      -164.3725 
  19   2.0000      -6.037648      -164.2927 
  20   2.0000      -6.036431      -164.2596 
  21   2.0000      -6.033597      -164.1825 
  22   2.0000      -6.032578      -164.1548 
  23   2.0000      -6.029470      -164.0702 
  24   2.0000      -1.009930       -27.4816 
  25   2.0000      -0.976585       -26.5742 
  26   2.0000      -0.914658       -24.8891 
  27   2.0000      -0.904634       -24.6164 
  28   2.0000      -0.867933       -23.6177 
  29   2.0000      -0.852518       -23.1982 
  30   2.0000      -0.840286       -22.8653 
  31   2.0000      -0.815457       -22.1897 
  32   2.0000      -0.786001       -21.3882 
  33   2.0000      -0.775491       -21.1022 
  34   2.0000      -0.708090       -19.2681 
  35   2.0000      -0.694853       -18.9079 
  36   2.0000      -0.689722       -18.7683 
  37   2.0000      -0.661216       -17.9926 
  38   2.0000      -0.641046       -17.4437 
  39   2.0000      -0.624446       -16.9921 
  40   2.0000      -0.596007       -16.2182 
  41   2.0000      -0.568435       -15.4679 
  42   2.0000      -0.561659       -15.2835 
  43   2.0000      -0.551197       -14.9988 
  44   2.0000      -0.544069       -14.8049 
  45   2.0000      -0.522858       -14.2277 
  46   2.0000      -0.517236       -14.0747 
  47   2.0000      -0.510629       -13.8949 
  48   2.0000      -0.506648       -13.7866 
  49   2.0000      -0.496192       -13.5021 
  50   2.0000      -0.493678       -13.4337 
  51   2.0000      -0.489741       -13.3265 
  52   2.0000      -0.471913       -12.8414 
  53   2.0000      -0.462456       -12.5841 
  54   2.0000      -0.458818       -12.4851 
  55   2.0000      -0.448942       -12.2163 
  56   2.0000      -0.446152       -12.1404 
  57   2.0000      -0.440668       -11.9912 
  58   2.0000      -0.436274       -11.8716 
  59   2.0000      -0.420876       -11.4526 
  60   2.0000      -0.414007       -11.2657 
  61   2.0000      -0.411765       -11.2047 
  62   2.0000      -0.407597       -11.0913 
  63   2.0000      -0.361276        -9.8308 
  64   2.0000      -0.335479        -9.1288 
  65   2.0000      -0.325676        -8.8621 
  66   2.0000      -0.284211        -7.7338 
  67   0.0000       0.014123         0.3843 
  68   0.0000       0.078641         2.1399 
  69   0.0000       0.095877         2.6089 
  70   0.0000       0.120061         3.2670 
  71   0.0000       0.133914         3.6440 
  72   0.0000       0.144761         3.9391 
  73   0.0000       0.150358         4.0914 
  74   0.0000       0.160758         4.3744 
  75   0.0000       0.165824         4.5123 
  76   0.0000       0.169067         4.6006 
  77   0.0000       0.175325         4.7708 
  78   0.0000       0.183584         4.9956 
  79   0.0000       0.195030         5.3070 
  80   0.0000       0.196635         5.3507 
  81   0.0000       0.200746         5.4626 
  82   0.0000       0.208318         5.6686 
  83   0.0000       0.214090         5.8257 
  84   0.0000       0.223120         6.0714 
  85   0.0000       0.227538         6.1916 
  86   0.0000       0.233608         6.3568 
  87   0.0000       0.236653         6.4397 
  88   0.0000       0.242248         6.5919 
  89   0.0000       0.249109         6.7786 
  90   0.0000       0.255317         6.9475 
  91   0.0000       0.256513         6.9801 
  92   0.0000       0.271128         7.3778 
  93   0.0000       0.297939         8.1073 
  94   0.0000       0.305581         8.3153 
  95   0.0000       0.311799         8.4845 
  96   0.0000       0.317867         8.6496 
  97   0.0000       0.338489         9.2108 
  98   0.0000       0.350050         9.5253 
  99   0.0000       0.362944         9.8762 
 100   0.0000       0.379783        10.3344 
 101   0.0000       0.394914        10.7462 
 102   0.0000       0.412481        11.2242 
 103   0.0000       0.431108        11.7310 
 104   0.0000       0.438332        11.9276 
 105   0.0000       0.448368        12.2007 
 106   0.0000       0.460824        12.5396 
 107   0.0000       0.474237        12.9046 
 108   0.0000       0.478621        13.0239 
 109   0.0000       0.493117        13.4184 
 110   0.0000       0.497194        13.5293 
 111   0.0000       0.510999        13.9050 
 112   0.0000       0.519094        14.1253 
 113   0.0000       0.530774        14.4431 
 114   0.0000       0.534431        14.5426 
 115   0.0000       0.537023        14.6131 
 116   0.0000       0.538561        14.6550 
 117   0.0000       0.548203        14.9174 
 118   0.0000       0.554465        15.0878 
 119   0.0000       0.575389        15.6571 
 120   0.0000       0.578317        15.7368 
 121   0.0000       0.587766        15.9939 
 122   0.0000       0.599652        16.3173 
 123   0.0000       0.606940        16.5157 
 124   0.0000       0.611492        16.6396 
 125   0.0000       0.628157        17.0930 
 126   0.0000       0.633526        17.2391 
 127   0.0000       0.641670        17.4607 
 128   0.0000       0.662191        18.0191 
 129   0.0000       0.664373        18.0785 
 130   0.0000       0.679745        18.4968 
 131   0.0000       0.685799        18.6615 
 132   0.0000       0.691499        18.8167 
 133   0.0000       0.696720        18.9587 
 134   0.0000       0.704166        19.1613 
 135   0.0000       0.715074        19.4582 
 136   0.0000       0.720601        19.6086 
 137   0.0000       0.725691        19.7471 
 138   0.0000       0.729617        19.8539 
 139   0.0000       0.733511        19.9599 
 140   0.0000       0.740441        20.1484 
 141   0.0000       0.744897        20.2697 
 142   0.0000       0.750121        20.4118 
 143   0.0000       0.754415        20.5287 
 144   0.0000       0.756070        20.5737 
 145   0.0000       0.764627        20.8066 
 146   0.0000       0.766181        20.8488 
 147   0.0000       0.772697        21.0261 
 148   0.0000       0.774388        21.0722 
 149   0.0000       0.776208        21.1217 
 150   0.0000       0.783189        21.3116 
 151   0.0000       0.791587        21.5402 
 152   0.0000       0.794797        21.6275 
 153   0.0000       0.797278        21.6950 
 154   0.0000       0.803421        21.8622 
 155   0.0000       0.804544        21.8927 
 156   0.0000       0.810293        22.0492 
 157   0.0000       0.815859        22.2007 
 158   0.0000       0.823761        22.4157 
 159   0.0000       0.827204        22.5094 
 160   0.0000       0.830554        22.6005 
 161   0.0000       0.836162        22.7531 
 162   0.0000       0.844788        22.9879 
 163   0.0000       0.845502        23.0073 
 164   0.0000       0.854824        23.2610 
 165   0.0000       0.859211        23.3803 
 166   0.0000       0.869978        23.6733 
 167   0.0000       0.882401        24.0114 
 168   0.0000       0.890474        24.2310 
 169   0.0000       0.895415        24.3655 
 170   0.0000       0.898544        24.4506 
 171   0.0000       0.917371        24.9629 
 172   0.0000       0.934626        25.4325 
 173   0.0000       0.941371        25.6160 
 174   0.0000       0.952172        25.9099 
 175   0.0000       0.970043        26.3962 
 176   0.0000       0.993916        27.0458 
 177   0.0000       1.015982        27.6463 
 178   0.0000       1.029118        28.0037 
 179   0.0000       1.041069        28.3289 
 180   0.0000       1.045001        28.4359 
 181   0.0000       1.061305        28.8796 
 182   0.0000       1.086682        29.5701 
 183   0.0000       1.124560        30.6008 
 184   0.0000       1.126606        30.6565 
 185   0.0000       1.132112        30.8063 
 186   0.0000       1.141334        31.0573 
 187   0.0000       1.162429        31.6313 
 188   0.0000       1.183969        32.2174 
 189   0.0000       1.188345        32.3365 
 190   0.0000       1.206113        32.8200 
 191   0.0000       1.231212        33.5030 
 192   0.0000       1.237799        33.6822 
 193   0.0000       1.273984        34.6669 
 194   0.0000       1.275142        34.6984 
 195   0.0000       1.290642        35.1201 
 196   0.0000       1.310752        35.6674 
 197   0.0000       1.326202        36.0878 
 198   0.0000       1.352580        36.8056 
 199   0.0000       1.379044        37.5257 
 200   0.0000       1.389489        37.8099 
 201   0.0000       1.417378        38.5688 
 202   0.0000       1.429920        38.9101 
 203   0.0000       1.438623        39.1469 
 204   0.0000       1.456289        39.6276 
 205   0.0000       1.472848        40.0782 
 206   0.0000       1.495089        40.6835 
 207   0.0000       1.508642        41.0522 
 208   0.0000       1.514546        41.2129 
 209   0.0000       1.559137        42.4263 
 210   0.0000       1.576425        42.8967 
 211   0.0000       1.611105        43.8404 
 212   0.0000       1.620951        44.1083 
 213   0.0000       1.636072        44.5198 
 214   0.0000       1.649086        44.8739 
 215   0.0000       1.668465        45.4012 
 216   0.0000       1.678336        45.6699 
 217   0.0000       1.700320        46.2681 
 218   0.0000       1.736052        47.2404 
 219   0.0000       1.755897        47.7804 
 220   0.0000       1.758726        47.8574 
 221   0.0000       1.796545        48.8865 
 222   0.0000       1.801230        49.0140 
 223   0.0000       1.810682        49.2712 
 224   0.0000       1.825219        49.6667 
 225   0.0000       1.826931        49.7133 
 226   0.0000       1.836407        49.9712 
 227   0.0000       1.840728        50.0887 
 228   0.0000       1.853465        50.4353 
 229   0.0000       1.854903        50.4745 
 230   0.0000       1.868806        50.8528 
 231   0.0000       1.876963        51.0748 
 232   0.0000       1.877808        51.0978 
 233   0.0000       1.891883        51.4808 
 234   0.0000       1.893386        51.5216 
 235   0.0000       1.903700        51.8023 
 236   0.0000       1.911252        52.0078 
 237   0.0000       1.918965        52.2177 
 238   0.0000       1.921632        52.2903 
 239   0.0000       1.935496        52.6675 
 240   0.0000       1.936697        52.7002 
 241   0.0000       1.949255        53.0419 
 242   0.0000       1.956883        53.2495 
 243   0.0000       1.973620        53.7049 
 244   0.0000       1.975468        53.7552 
 245   0.0000       1.983370        53.9702 
 246   0.0000       1.991980        54.2045 
 247   0.0000       1.996811        54.3360 
 248   0.0000       2.009776        54.6888 
 249   0.0000       2.022580        55.0372 
 250   0.0000       2.030046        55.2404 
 251   0.0000       2.040717        55.5307 
 252   0.0000       2.044320        55.6288 
 253   0.0000       2.068699        56.2922 
 254   0.0000       2.090813        56.8939 
 255   0.0000       2.101834        57.1938 
 256   0.0000       2.116331        57.5883 
 257   0.0000       2.129919        57.9581 
 258   0.0000       2.141405        58.2706 
 259   0.0000       2.144231        58.3475 
 260   0.0000       2.153944        58.6118 
 261   0.0000       2.171631        59.0931 
 262   0.0000       2.187560        59.5265 
 263   0.0000       2.190075        59.5950 
 264   0.0000       2.222978        60.4903 
 265   0.0000       2.238150        60.9031 
 266   0.0000       2.253747        61.3276 
 267   0.0000       2.268889        61.7396 
 268   0.0000       2.282357        62.1061 
 269   0.0000       2.300477        62.5992 
 270   0.0000       2.318338        63.0852 
 271   0.0000       2.333047        63.4854 
 272   0.0000       2.356654        64.1278 
 273   0.0000       2.371419        64.5296 
 274   0.0000       2.403831        65.4116 
 275   0.0000       2.424769        65.9813 
 276   0.0000       2.435810        66.2817 
 277   0.0000       2.451408        66.7062 
 278   0.0000       2.455680        66.8224 
 279   0.0000       2.464639        67.0662 
 280   0.0000       2.470975        67.2386 
 281   0.0000       2.492472        67.8236 
 282   0.0000       2.510790        68.3221 
 283   0.0000       2.524457        68.6940 
 284   0.0000       2.528637        68.8077 
 285   0.0000       2.535831        69.0035 
 286   0.0000       2.552249        69.4502 
 287   0.0000       2.569919        69.9310 
 288   0.0000       2.604316        70.8670 
 289   0.0000       2.629507        71.5525 
 290   0.0000       2.633067        71.6494 
 291   0.0000       2.638351        71.7932 
 292   0.0000       2.671925        72.7068 
 293   0.0000       2.680150        72.9306 
 294   0.0000       2.716165        73.9106 
 295   0.0000       2.731992        74.3413 
 296   0.0000       2.743020        74.6414 
 297   0.0000       2.748800        74.7987 
 298   0.0000       2.782292        75.7100 
 299   0.0000       2.801264        76.2263 
 300   0.0000       2.838485        77.2391 
 301   0.0000       2.873064        78.1801 
 302   0.0000       2.899680        78.9043 
 303   0.0000       2.938562        79.9623 
 304   0.0000       2.955595        80.4258 
 305   0.0000       2.958147        80.4953 
 306   0.0000       2.985243        81.2326 
 307   0.0000       3.002844        81.7115 
 308   0.0000       3.015360        82.0521 
 309   0.0000       3.030653        82.4683 
 310   0.0000       3.073418        83.6320 
 311   0.0000       3.085979        83.9738 
 312   0.0000       3.095776        84.2403 
 313   0.0000       3.124705        85.0275 
 314   0.0000       3.130506        85.1854 
 315   0.0000       3.138113        85.3924 
 316   0.0000       3.179253        86.5119 
 317   0.0000       3.205557        87.2276 
 318   0.0000       3.226651        87.8016 
 319   0.0000       3.263567        88.8062 
 320   0.0000       3.344538        91.0095 
 321   0.0000       3.426570        93.2417 

                    ********************************
                    * MULLIKEN POPULATION ANALYSIS *
                    ********************************

-----------------------
MULLIKEN ATOMIC CHARGES
-----------------------
   0 S :    0.103849
   1 C :   -0.128749
   2 C :   -0.121201
   3 C :   -0.009928
   4 C :   -0.102143
   5 H :    0.009250
   6 C :    0.125540
   7 H :    0.015408
   8 H :    0.017040
   9 C :   -0.135476
  10 H :    0.034598
  11 H :    0.039264
  12 C :    0.001935
  13 H :    0.015092
  14 H :    0.043820
  15 H :    0.027814
  16 S :    0.074404
  17 C :   -0.053441
  18 C :   -0.045253
  19 C :   -0.040821
  20 C :   -0.128942
  21 H :    0.012200
  22 C :    0.082223
  23 H :    0.002765
  24 H :    0.039858
  25 C :   -0.113657
  26 H :    0.030302
  27 H :    0.034851
  28 C :   -0.071792
  29 H :    0.043625
  30 H :    0.049711
  31 H :    0.034279
  32 H :    0.063856
  33 H :    0.049719
Sum of atomic charges:    0.0000000

--------------------------------
MULLIKEN REDUCED ORBITAL CHARGES
--------------------------------
  0 S s       :     5.840535  s :     5.840535
      pz      :     3.485575  p :     9.944797
      px      :     3.509174
      py      :     2.950048
      dz2     :     0.011948  d :     0.110820
      dxz     :     0.013945
      dyz     :     0.035184
      dx2y2   :     0.014671
      dxy     :     0.035073
  1 C s       :     3.183797  s :     3.183797
      pz      :     0.997178  p :     2.910597
      px      :     1.012828
      py      :     0.900590
      dz2     :     0.007303  d :     0.034355
      dxz     :     0.004683
      dyz     :     0.007866
      dx2y2   :     0.007183
      dxy     :     0.007321
  2 C s       :     3.092121  s :     3.092121
      pz      :     0.980609  p :     2.983811
      px      :     0.996826
      py      :     1.006377
      dz2     :     0.008800  d :     0.045269
      dxz     :     0.006263
      dyz     :     0.009304
      dx2y2   :     0.010807
      dxy     :     0.010095
  3 C s       :     3.194906  s :     3.194906
      pz      :     0.960732  p :     2.779481
      px      :     0.956023
      py      :     0.862725
      dz2     :     0.007158  d :     0.035541
      dxz     :     0.004935
      dyz     :     0.007500
      dx2y2   :     0.007760
      dxy     :     0.008188
  4 C s       :     3.026610  s :     3.026610
      pz      :     1.020631  p :     3.028990
      px      :     1.025822
      py      :     0.982537
      dz2     :     0.009651  d :     0.046543
      dxz     :     0.004744
      dyz     :     0.012383
      dx2y2   :     0.008517
      dxy     :     0.011248
  5 H s       :     0.966849  s :     0.966849
      pz      :     0.006400  p :     0.023900
      px      :     0.007743
      py      :     0.009757
  6 C s       :     2.938998  s :     2.938998
      pz      :     0.934250  p :     2.900392
      px      :     0.985538
      py      :     0.980605
      dz2     :     0.008940  d :     0.035069
      dxz     :     0.007894
      dyz     :     0.005303
      dx2y2   :     0.006431
      dxy     :     0.006501
  7 H s       :     0.961763  s :     0.961763
      pz      :     0.003971  p :     0.022829
      px      :     0.004846
      py      :     0.014012
  8 H s       :     0.958102  s :     0.958102
      pz      :     0.004903  p :     0.024857
      px      :     0.012004
      py      :     0.007950
  9 C s       :     3.101778  s :     3.101778
      pz      :     0.962028  p :     2.997287
      px      :     1.004087
      py      :     1.031171
      dz2     :     0.007919  d :     0.036411
      dxz     :     0.009185
      dyz     :     0.003883
      dx2y2   :     0.010160
      dxy     :     0.005264
 10 H s       :     0.943507  s :     0.943507
      pz      :     0.004198  p :     0.021895
      px      :     0.003963
      py      :     0.013735
 11 H s       :     0.942235  s :     0.942235
      pz      :     0.005961  p :     0.018501
      px      :     0.007938
      py      :     0.004602
 12 C s       :     2.959510  s :     2.959510
      pz      :     1.013264  p :     3.009018
      px      :     0.978791
      py      :     1.016963
      dz2     :     0.006657  d :     0.029538
      dxz     :     0.008593
      dyz     :     0.001203
      dx2y2   :     0.008635
      dxy     :     0.004450
 13 H s       :     0.959562  s :     0.959562
      pz      :     0.005964  p :     0.025346
      px      :     0.005297
      py      :     0.014086
 14 H s       :     0.929488  s :     0.929488
      pz      :     0.011008  p :     0.026691
      px      :     0.009952
      py      :     0.005731
 15 H s       :     0.947575  s :     0.947575
      pz      :     0.013111  p :     0.024611
      px      :     0.005475
      py      :     0.006025
 16 S s       :     5.846139  s :     5.846139
      pz      :     3.580746  p :     9.980149
      px      :     3.249260
      py      :     3.150144
      dz2     :     0.012340  d :     0.099307
      dxz     :     0.017555
      dyz     :     0.015989
      dx2y2   :     0.039205
      dxy     :     0.014219
 17 C s       :     3.135773  s :     3.135773
      pz      :     1.054491  p :     2.883741
      px      :     0.994989
      py      :     0.834262
      dz2     :     0.003430  d :     0.033927
      dxz     :     0.005122
      dyz     :     0.006120
      dx2y2   :     0.011085
      dxy     :     0.008170
 18 C s       :     3.183639  s :     3.183639
      pz      :     1.015025  p :     2.827927
      px      :     0.909052
      py      :     0.903850
      dz2     :     0.003922  d :     0.033687
      dxz     :     0.006403
      dyz     :     0.003382
      dx2y2   :     0.010693
      dxy     :     0.009287
 19 C s       :     3.070374  s :     3.070374
      pz      :     0.999134  p :     2.932236
      px      :     0.945251
      py      :     0.987851
      dz2     :     0.003630  d :     0.038211
      dxz     :     0.005378
      dyz     :     0.006639
      dx2y2   :     0.010103
      dxy     :     0.012462
 20 C s       :     3.092950  s :     3.092950
      pz      :     1.059963  p :     2.996566
      px      :     0.928600
      py      :     1.008003
      dz2     :     0.004421  d :     0.039427
      dxz     :     0.005641
      dyz     :     0.007614
      dx2y2   :     0.013391
      dxy     :     0.008360
 21 H s       :     0.963694  s :     0.963694
      pz      :     0.005325  p :     0.024105
      px      :     0.003931
      py      :     0.014850
 22 C s       :     2.955726  s :     2.955726
      pz      :     1.008675  p :     2.928392
      px      :     0.905498
      py      :     1.014219
      dz2     :     0.009341  d :     0.033659
      dxz     :     0.007802
      dyz     :     0.002565
      dx2y2   :     0.009891
      dxy     :     0.004060
 23 H s       :     0.972761  s :     0.972761
      pz      :     0.005443  p :     0.024474
      px      :     0.004460
      py      :     0.014571
 24 H s       :     0.936244  s :     0.936244
      pz      :     0.013432  p :     0.023898
      px      :     0.004033
      py      :     0.006433
 25 C s       :     3.074718  s :     3.074718
      pz      :     1.010894  p :     3.002927
      px      :     0.958304
      py      :     1.033730
      dz2     :     0.009898  d :     0.036012
      dxz     :     0.007746
      dyz     :     0.002201
      dx2y2   :     0.010314
      dxy     :     0.005853
 26 H s       :     0.947445  s :     0.947445
      pz      :     0.004955  p :     0.022253
      px      :     0.003497
      py      :     0.013801
 27 H s       :     0.942929  s :     0.942929
      pz      :     0.012912  p :     0.022220
      px      :     0.004017
      py      :     0.005292
 28 C s       :     3.051911  s :     3.051911
      pz      :     1.012671  p :     2.992611
      px      :     0.971690
      py      :     1.008250
      dz2     :     0.006112  d :     0.027270
      dxz     :     0.005748
      dyz     :     0.003250
      dx2y2   :     0.006839
      dxy     :     0.005321
 29 H s       :     0.933775  s :     0.933775
      pz      :     0.007646  p :     0.022601
      px      :     0.007905
      py      :     0.007050
 30 H s       :     0.928758  s :     0.928758
      pz      :     0.005200  p :     0.021531
      px      :     0.003883
      py      :     0.012447
 31 H s       :     0.943079  s :     0.943079
      pz      :     0.012951  p :     0.022642
      px      :     0.005250
      py      :     0.004441
 32 H s       :     0.913502  s :     0.913502
      pz      :     0.003993  p :     0.022642
      px      :     0.003995
      py      :     0.014654
 33 H s       :     0.924284  s :     0.924284
      pz      :     0.007813  p :     0.025997
      px      :     0.009699
      py      :     0.008485


                     *******************************
                     * LOEWDIN POPULATION ANALYSIS *
                     *******************************

----------------------
LOEWDIN ATOMIC CHARGES
----------------------
   0 S :    0.412284
   1 C :   -0.208770
   2 C :   -0.062562
   3 C :   -0.069648
   4 C :   -0.191783
   5 H :    0.034879
   6 C :   -0.021465
   7 H :    0.026432
   8 H :    0.025560
   9 C :   -0.041508
  10 H :    0.019588
  11 H :    0.031673
  12 C :   -0.064437
  13 H :    0.026995
  14 H :    0.021384
  15 H :    0.029763
  16 S :    0.369330
  17 C :   -0.181694
  18 C :   -0.064899
  19 C :   -0.053012
  20 C :   -0.163743
  21 H :    0.024698
  22 C :   -0.029301
  23 H :    0.026344
  24 H :    0.026977
  25 C :   -0.054385
  26 H :    0.023441
  27 H :    0.027744
  28 C :   -0.070567
  29 H :    0.032592
  30 H :    0.030474
  31 H :    0.024685
  32 H :    0.038764
  33 H :    0.024167

-------------------------------
LOEWDIN REDUCED ORBITAL CHARGES
-------------------------------
  0 S s       :     5.492137  s :     5.492137
      pz      :     3.483685  p :     9.958672
      px      :     3.507526
      py      :     2.967460
      dz2     :     0.012906  d :     0.136907
      dxz     :     0.015190
      dyz     :     0.045152
      dx2y2   :     0.018636
      dxy     :     0.045023
  1 C s       :     2.936053  s :     2.936053
      pz      :     1.069737  p :     3.191391
      px      :     1.078126
      py      :     1.043528
      dz2     :     0.015873  d :     0.081326
      dxz     :     0.012215
      dyz     :     0.018874
      dx2y2   :     0.016985
      dxy     :     0.017380
  2 C s       :     2.859300  s :     2.859300
      pz      :     1.011129  p :     3.091079
      px      :     1.020203
      py      :     1.059747
      dz2     :     0.018789  d :     0.112183
      dxz     :     0.016760
      dyz     :     0.023524
      dx2y2   :     0.027816
      dxy     :     0.025293
  3 C s       :     2.857726  s :     2.857726
      pz      :     1.042963  p :     3.117363
      px      :     1.037868
      py      :     1.036531
      dz2     :     0.016388  d :     0.094559
      dxz     :     0.014612
      dyz     :     0.019802
      dx2y2   :     0.021600
      dxy     :     0.022156
  4 C s       :     2.897218  s :     2.897218
      pz      :     1.083164  p :     3.182890
      px      :     1.077469
      py      :     1.022256
      dz2     :     0.020948  d :     0.111675
      dxz     :     0.012756
      dyz     :     0.029386
      dx2y2   :     0.021008
      dxy     :     0.027577
  5 H s       :     0.896590  s :     0.896590
      pz      :     0.018506  p :     0.068531
      px      :     0.021739
      py      :     0.028287
  6 C s       :     2.821598  s :     2.821598
      pz      :     1.009520  p :     3.111597
      px      :     1.039985
      py      :     1.062091
      dz2     :     0.022998  d :     0.088270
      dxz     :     0.020299
      dyz     :     0.011408
      dx2y2   :     0.016943
      dxy     :     0.016622
  7 H s       :     0.906091  s :     0.906091
      pz      :     0.014358  p :     0.067477
      px      :     0.014306
      py      :     0.038814
  8 H s       :     0.899278  s :     0.899278
      pz      :     0.017204  p :     0.075162
      px      :     0.035145
      py      :     0.022813
  9 C s       :     2.855744  s :     2.855744
      pz      :     1.004024  p :     3.099207
      px      :     1.033922
      py      :     1.061261
      dz2     :     0.020038  d :     0.086557
      dxz     :     0.021375
      dyz     :     0.008155
      dx2y2   :     0.024013
      dxy     :     0.012975
 10 H s       :     0.913925  s :     0.913925
      pz      :     0.013936  p :     0.066487
      px      :     0.012622
      py      :     0.039930
 11 H s       :     0.916450  s :     0.916450
      pz      :     0.017669  p :     0.051878
      px      :     0.022579
      py      :     0.011630
 12 C s       :     2.808007  s :     2.808007
      pz      :     1.065036  p :     3.178464
      px      :     1.045277
      py      :     1.068150
      dz2     :     0.017797  d :     0.077966
      dxz     :     0.023057
      dyz     :     0.003101
      dx2y2   :     0.021673
      dxy     :     0.012339
 13 H s       :     0.903510  s :     0.903510
      pz      :     0.015256  p :     0.069495
      px      :     0.015353
      py      :     0.038886
 14 H s       :     0.902223  s :     0.902223
      pz      :     0.030159  p :     0.076393
      px      :     0.029368
      py      :     0.016866
 15 H s       :     0.902932  s :     0.902932
      pz      :     0.035415  p :     0.067305
      px      :     0.016178
      py      :     0.015712
 16 S s       :     5.533331  s :     5.533331
      pz      :     3.554747  p :     9.977054
      px      :     3.258582
      py      :     3.163725
      dz2     :     0.014356  d :     0.120286
      dxz     :     0.020911
      dyz     :     0.018131
      dx2y2   :     0.050025
      dxy     :     0.016862
 17 C s       :     2.933687  s :     2.933687
      pz      :     1.073973  p :     3.169117
      px      :     1.097827
      py      :     0.997318
      dz2     :     0.007101  d :     0.078891
      dxz     :     0.010083
      dyz     :     0.013622
      dx2y2   :     0.027797
      dxy     :     0.020288
 18 C s       :     2.876285  s :     2.876285
      pz      :     1.016968  p :     3.101577
      px      :     1.037092
      py      :     1.047517
      dz2     :     0.008284  d :     0.087038
      dxz     :     0.014211
      dyz     :     0.007081
      dx2y2   :     0.029355
      dxy     :     0.028107
 19 C s       :     2.884165  s :     2.884165
      pz      :     1.006788  p :     3.075159
      px      :     1.024225
      py      :     1.044146
      dz2     :     0.007799  d :     0.093689
      dxz     :     0.010208
      dyz     :     0.014562
      dx2y2   :     0.027382
      dxy     :     0.033737
 20 C s       :     2.931320  s :     2.931320
      pz      :     1.064663  p :     3.140167
      px      :     1.000344
      py      :     1.075161
      dz2     :     0.009486  d :     0.092256
      dxz     :     0.011505
      dyz     :     0.016507
      dx2y2   :     0.033262
      dxy     :     0.021495
 21 H s       :     0.902575  s :     0.902575
      pz      :     0.016799  p :     0.072727
      px      :     0.013009
      py      :     0.042920
 22 C s       :     2.829517  s :     2.829517
      pz      :     1.052662  p :     3.115887
      px      :     0.987436
      py      :     1.075790
      dz2     :     0.022416  d :     0.083897
      dxz     :     0.019886
      dyz     :     0.006602
      dx2y2   :     0.025548
      dxy     :     0.009446
 23 H s       :     0.901744  s :     0.901744
      pz      :     0.015506  p :     0.071912
      px      :     0.014616
      py      :     0.041790
 24 H s       :     0.902733  s :     0.902733
      pz      :     0.038724  p :     0.070290
      px      :     0.014619
      py      :     0.016947
 25 C s       :     2.845367  s :     2.845367
      pz      :     1.051338  p :     3.123315
      px      :     1.013366
      py      :     1.058610
      dz2     :     0.024213  d :     0.085703
      dxz     :     0.018624
      dyz     :     0.004653
      dx2y2   :     0.024438
      dxy     :     0.013775
 26 H s       :     0.912053  s :     0.912053
      pz      :     0.013478  p :     0.064506
      px      :     0.012233
      py      :     0.038796
 27 H s       :     0.905341  s :     0.905341
      pz      :     0.037841  p :     0.066915
      px      :     0.014020
      py      :     0.015054
 28 C s       :     2.852914  s :     2.852914
      pz      :     1.063379  p :     3.148823
      px      :     1.030293
      py      :     1.055151
      dz2     :     0.016120  d :     0.068829
      dxz     :     0.013613
      dyz     :     0.008232
      dx2y2   :     0.017610
      dxy     :     0.013253
 29 H s       :     0.904983  s :     0.904983
      pz      :     0.019873  p :     0.062425
      px      :     0.023118
      py      :     0.019434
 30 H s       :     0.908629  s :     0.908629
      pz      :     0.013615  p :     0.060898
      px      :     0.011472
      py      :     0.035811
 31 H s       :     0.911245  s :     0.911245
      pz      :     0.036818  p :     0.064071
      px      :     0.015401
      py      :     0.011853
 32 H s       :     0.891786  s :     0.891786
      pz      :     0.012702  p :     0.069450
      px      :     0.013485
      py      :     0.043262
 33 H s       :     0.893489  s :     0.893489
      pz      :     0.024654  p :     0.082344
      px      :     0.028652
      py      :     0.029039


                      *****************************
                      * MAYER POPULATION ANALYSIS *
                      *****************************

  NA   - Mulliken gross atomic population
  ZA   - Total nuclear charge
  QA   - Mulliken gross atomic charge
  VA   - Mayer's total valence
  BVA  - Mayer's bonded valence
  FA   - Mayer's free valence

  ATOM       NA         ZA         QA         VA         BVA        FA
  0 S     15.8962    16.0000     0.1038     2.4801     2.4801    -0.0000
  1 C      6.1287     6.0000    -0.1287     3.8397     3.8397     0.0000
  2 C      6.1212     6.0000    -0.1212     4.0230     4.0230    -0.0000
  3 C      6.0099     6.0000    -0.0099     3.9341     3.9341     0.0000
  4 C      6.1021     6.0000    -0.1021     3.9529     3.9529    -0.0000
  5 H      0.9907     1.0000     0.0093     1.0091     1.0091     0.0000
  6 C      5.8745     6.0000     0.1255     3.9464     3.9464    -0.0000
  7 H      0.9846     1.0000     0.0154     0.9921     0.9921    -0.0000
  8 H      0.9830     1.0000     0.0170     0.9866     0.9866     0.0000
  9 C      6.1355     6.0000    -0.1355     4.0784     4.0784     0.0000
 10 H      0.9654     1.0000     0.0346     0.9819     0.9819     0.0000
 11 H      0.9607     1.0000     0.0393     0.9723     0.9723     0.0000
 12 C      5.9981     6.0000     0.0019     3.9711     3.9711     0.0000
 13 H      0.9849     1.0000     0.0151     0.9895     0.9895     0.0000
 14 H      0.9562     1.0000     0.0438     1.0047     1.0047     0.0000
 15 H      0.9722     1.0000     0.0278     0.9892     0.9892     0.0000
 16 S     15.9256    16.0000     0.0744     2.4647     2.4647     0.0000
 17 C      6.0534     6.0000    -0.0534     3.8374     3.8374     0.0000
 18 C      6.0453     6.0000    -0.0453     3.9774     3.9774     0.0000
 19 C      6.0408     6.0000    -0.0408     3.9987     3.9987    -0.0000
 20 C      6.1289     6.0000    -0.1289     3.9112     3.9112     0.0000
 21 H      0.9878     1.0000     0.0122     0.9976     0.9976     0.0000
 22 C      5.9178     6.0000     0.0822     3.9500     3.9500     0.0000
 23 H      0.9972     1.0000     0.0028     0.9980     0.9980     0.0000
 24 H      0.9601     1.0000     0.0399     0.9893     0.9893     0.0000
 25 C      6.1137     6.0000    -0.1137     4.0563     4.0563     0.0000
 26 H      0.9697     1.0000     0.0303     0.9833     0.9833    -0.0000
 27 H      0.9651     1.0000     0.0349     0.9801     0.9801     0.0000
 28 C      6.0718     6.0000    -0.0718     4.0094     4.0094     0.0000
 29 H      0.9564     1.0000     0.0436     0.9849     0.9849    -0.0000
 30 H      0.9503     1.0000     0.0497     0.9840     0.9840    -0.0000
 31 H      0.9657     1.0000     0.0343     0.9864     0.9864     0.0000
 32 H      0.9361     1.0000     0.0639     1.0017     1.0017     0.0000
 33 H      0.9503     1.0000     0.0497     1.0009     1.0009     0.0000

  Mayer bond orders larger than 0.100000
B(  0-S ,  1-C ) :   1.1297 B(  0-S ,  4-C ) :   1.1497 B(  1-C ,  2-C ) :   1.6202 
B(  1-C , 32-H ) :   0.9610 B(  2-C ,  3-C ) :   1.2271 B(  2-C ,  6-C ) :   1.0253 
B(  3-C ,  4-C ) :   1.5880 B(  3-C ,  5-H ) :   0.9845 B(  4-C , 20-C ) :   1.0714 
B(  6-C ,  7-H ) :   0.9424 B(  6-C ,  8-H ) :   0.9353 B(  6-C ,  9-C ) :   1.0602 
B(  9-C , 10-H ) :   0.9584 B(  9-C , 11-H ) :   0.9574 B(  9-C , 12-C ) :   1.0723 
B( 12-C , 13-H ) :   0.9689 B( 12-C , 14-H ) :   0.9735 B( 12-C , 15-H ) :   0.9682 
B( 16-S , 17-C ) :   1.1394 B( 16-S , 20-C ) :   1.1347 B( 17-C , 18-C ) :   1.6059 
B( 17-C , 20-C ) :   0.1077 B( 17-C , 33-H ) :   0.9700 B( 18-C , 19-C ) :   1.2642 
B( 18-C , 21-H ) :   0.9850 B( 19-C , 20-C ) :   1.5524 B( 19-C , 22-C ) :   1.0314 
B( 22-C , 23-H ) :   0.9339 B( 22-C , 24-H ) :   0.9363 B( 22-C , 25-C ) :   1.0465 
B( 25-C , 26-H ) :   0.9510 B( 25-C , 27-H ) :   0.9560 B( 25-C , 28-C ) :   1.0861 
B( 28-C , 29-H ) :   0.9731 B( 28-C , 30-H ) :   0.9746 B( 28-C , 31-H ) :   0.9742 


-------
TIMINGS
-------

Total SCF time: 0 days 0 hours 0 min 18 sec 

Total time                  ....      18.959 sec
Sum of individual times     ....      18.136 sec  ( 95.7%)

Fock matrix formation       ....      16.496 sec  ( 87.0%)
  XC integration            ....       1.338 sec  (  8.1% of F)
    Basis function eval.    ....       0.133 sec  (  9.9% of XC)
    Density eval.           ....       0.098 sec  (  7.3% of XC)
    XC-Functional eval.     ....       0.110 sec  (  8.2% of XC)
    XC-Potential eval.      ....       0.113 sec  (  8.5% of XC)
Diagonalization             ....       0.127 sec  (  0.7%)
Density matrix formation    ....       0.023 sec  (  0.1%)
Population analysis         ....       0.051 sec  (  0.3%)
Initial guess               ....       0.167 sec  (  0.9%)
Orbital Transformation      ....       0.000 sec  (  0.0%)
Orbital Orthonormalization  ....       0.000 sec  (  0.0%)
DIIS solution               ....       0.163 sec  (  0.9%)
SOSCF solution              ....       0.104 sec  (  0.5%)
Grid generation             ....       1.006 sec  (  5.3%)


-------------------------------------------------------------------------------
                          DFT DISPERSION CORRECTION                            
                                                                               
                              DFTD3 V3.1  Rev 1                                
                              USING zero damping                               
-------------------------------------------------------------------------------
The omegaB97X-D3 functional is recognized. Fit by Chai et al.
Active option DFTDOPT                   ...         3   

molecular C6(AA) [au] = 14197.084087 


            DFT-D V3
 parameters
 s6 scaling factor         :     1.0000 
 rs6 scaling factor        :     1.2810 
 s8 scaling factor         :     1.0000 
 rs8 scaling factor        :     1.0940 
 Damping factor alpha6     :    14.0000 
 Damping factor alpha8     :    16.0000 
 ad hoc parameters k1-k3   :    16.0000     1.3333    -4.0000 

 Edisp/kcal,au: -9.170023031668  -0.014613360328 
 E6   /kcal   :  -4.209572384 
 E8   /kcal   :  -4.960450647 
 % E8         :  54.094200531 

-------------------------   ----------------
Dispersion correction           -0.014613360
-------------------------   ----------------


-------------------------   --------------------
FINAL SINGLE POINT ENERGY     -1339.870811258409
-------------------------   --------------------


                            ***************************************
                            *     ORCA property calculations      *
                            ***************************************

                                    ---------------------
                                    Active property flags
                                    ---------------------
   (+) Dipole Moment


------------------------------------------------------------------------------
                       ORCA ELECTRIC PROPERTIES CALCULATION
------------------------------------------------------------------------------

Dipole Moment Calculation                       ... on
Quadrupole Moment Calculation                   ... off
Polarizability Calculation                      ... off
GBWName                                         ... config_4515.gbw
Electron density file                           ... config_4515.scfp
The origin for moment calculation is the CENTER OF MASS  = (-191.634329, 74.289523 -166.500437)

-------------
DIPOLE MOMENT
-------------
                                X             Y             Z
Electronic contribution:     22.18603      -0.23089     -14.65159
Nuclear contribution   :    -22.87781       0.38531      14.87816
                        -----------------------------------------
Total Dipole Moment    :     -0.69178       0.15442       0.22657
                        -----------------------------------------
Magnitude (a.u.)       :      0.74413
Magnitude (Debye)      :      1.89144



--------------------
Rotational spectrum 
--------------------
 
Rotational constants in cm-1:     0.017356     0.009400     0.007217 
Rotational constants in MHz :   520.319942   281.818900   216.371410 

 Dipole components along the rotational axes: 
x,y,z [a.u.] :     0.126869    -0.732865    -0.023422 
x,y,z [Debye]:     0.322476    -1.862795    -0.059534 

 

Timings for individual modules:

Sum of individual times         ...       20.129 sec (=   0.335 min)
GTO integral calculation        ...        0.802 sec (=   0.013 min)   4.0 %
SCF iterations                  ...       19.327 sec (=   0.322 min)  96.0 %
                             ****ORCA TERMINATED NORMALLY****
TOTAL RUN TIME: 0 days 0 hours 0 minutes 20 seconds 830 msec
