
                                 *****************
                                 * O   R   C   A *
                                 *****************

           --- An Ab Initio, DFT and Semiempirical electronic structure package ---

                  #######################################################
                  #                        -***-                        #
                  #          Department of theory and spectroscopy      #
                  #               Directorship: Frank Neese             #
                  #        Max Planck Institute fuer Kohlenforschung    #
                  #                Kaiser Wilhelm Platz 1               #
                  #                 D-45470 Muelheim/Ruhr               #
                  #                      Germany                        #
                  #                                                     #
                  #                  All rights reserved                #
                  #                        -***-                        #
                  #######################################################


                         Program Version 4.2.1 -  RELEASE  -


 With contributions from (in alphabetic order):
   Daniel Aravena         : Magnetic Suceptibility
   Michael Atanasov       : Ab Initio Ligand Field Theory (pilot matlab implementation)
   Alexander A. Auer      : GIAO ZORA, VPT2
   Ute Becker             : Parallelization
   Giovanni Bistoni       : ED, misc. LED, open-shell LED, HFLD
   Martin Brehm           : Molecular dynamics
   Dmytro Bykov           : SCF Hessian
   Vijay G. Chilkuri      : MRCI spin determinant printing, contributions to CSF-ICE
   Dipayan Datta          : RHF DLPNO-CCSD density
   Achintya Kumar Dutta   : EOM-CC, STEOM-CC
   Dmitry Ganyushin       : Spin-Orbit,Spin-Spin,Magnetic field MRCI
   Miquel Garcia          : C-PCM Hessian, Gaussian charge scheme
   Yang Guo               : DLPNO-NEVPT2, CIM, IAO-localization
   Andreas Hansen         : Spin unrestricted coupled pair/coupled cluster methods
   Benjamin Helmich-Paris : CASSCF linear response (MC-RPA)
   Lee Huntington         : MR-EOM, pCC
   Robert Izsak           : Overlap fitted RIJCOSX, COSX-SCS-MP3, EOM
   Christian Kollmar      : KDIIS, OOCD, Brueckner-CCSD(T), CCSD density
   Simone Kossmann        : Meta GGA functionals, TD-DFT gradient, OOMP2, MP2 Hessian
   Martin Krupicka        : AUTO-CI
   Lucas Lang             : DCDCAS
   Dagmar Lenk            : GEPOL surface, SMD
   Dimitrios Liakos       : Extrapolation schemes; Compound Job, initial MDCI parallelization
   Dimitrios Manganas     : Further ROCIS development; embedding schemes
   Dimitrios Pantazis     : SARC Basis sets
   Taras Petrenko         : DFT Hessian,TD-DFT gradient, ASA, ECA, R-Raman, ABS, FL, XAS/XES, NRVS
   Peter Pinski           : DLPNO-MP2, DLPNO-MP2 Gradient
   Christoph Reimann      : Effective Core Potentials
   Marius Retegan         : Local ZFS, SOC
   Christoph Riplinger    : Optimizer, TS searches, QM/MM, DLPNO-CCSD(T), (RO)-DLPNO pert. Triples
   Tobias Risthaus        : Range-separated hybrids, TD-DFT gradient, RPA, STAB
   Michael Roemelt        : Original ROCIS implementation
   Masaaki Saitow         : Open-shell DLPNO-CCSD energy and density
   Barbara Sandhoefer     : DKH picture change effects
   Avijit Sen             : IP-ROCIS
   Kantharuban Sivalingam : CASSCF convergence, NEVPT2, FIC-MRCI
   Bernardo de Souza      : ESD, SOC TD-DFT
   Georgi Stoychev        : AutoAux, RI-MP2 NMR
   Willem Van den Heuvel  : Paramagnetic NMR
   Boris Wezisla          : Elementary symmetry handling
   Frank Wennmohs         : Technical directorship


 We gratefully acknowledge several colleagues who have allowed us to
 interface, adapt or use parts of their codes:
   Stefan Grimme, W. Hujo, H. Kruse,             : VdW corrections, initial TS optimization,
                  C. Bannwarth                     DFT functionals, gCP, sTDA/sTD-DF
   Ed Valeev, F. Pavosevic, A. Kumar             : LibInt (2-el integral package), F12 methods
   Garnet Chan, S. Sharma, J. Yang, R. Olivares  : DMRG
   Ulf Ekstrom                                   : XCFun DFT Library
   Mihaly Kallay                                 : mrcc  (arbitrary order and MRCC methods)
   Andreas Klamt, Michael Diedenhofen            : otool_cosmo (COSMO solvation model)
   Jiri Pittner, Ondrej Demel                    : Mk-CCSD
   Frank Weinhold                                : gennbo (NPA and NBO analysis)
   Christopher J. Cramer and Donald G. Truhlar   : smd solvation model
   Lars Goerigk                                  : TD-DFT with DH, B97 family of functionals
   V. Asgeirsson, H. Jonsson                     : NEB implementation
   FAccTs GmbH                                   : IRC, NEB, NEB-TS, Multilevel, MM, QM/MM, CI optimization
   S Lehtola, MJT Oliveira, MAL Marques          : LibXC Library


 Your calculation uses the libint2 library for the computation of 2-el integrals
 For citations please refer to: http://libint.valeyev.net

 Your ORCA version has been built with support for libXC version: 4.2.3
 For citations please refer to: https://tddft.org/programs/libxc/

 This ORCA versions uses:
   CBLAS   interface :  Fast vector & matrix operations
   LAPACKE interface :  Fast linear algebra routines
   SCALAPACK package :  Parallel linear algebra routines


Your calculation utilizes the atom-pairwise dispersion correction
with the zero-damping scheme (D30)
Cite in your paper:
S.Grimme, J.Antony, S.Ehrlich and H.Krieg, J.Chem.Phys., 132, (2010), 154104 
   

XCFun DFT library Copyright 2009-2010 Ulf Ekstrom and contributors.
See http://admol.org/xcfun for more information. This is free soft-
ware; see the source code for copying conditions. There is ABSOLUTELY
NO WARRANTY; not even for MERCHANTABILITY or FITNESS FOR A PARTICULAR
PURPOSE. For details see the documentation. Scientific users of this 
library should cite U. Ekstrom, L. Visscher, R. Bast, A. J. Thorvald-
sen and K. Ruud; J.Chem.Theor.Comp. 2010, DOI: 10.1021/ct100117s
XCFun Version 0.99 
----- Orbital basis set information -----
Your calculation utilizes the basis: def2-SVP
   F. Weigend and R. Ahlrichs, Phys. Chem. Chem. Phys. 7, 3297 (2005).

================================================================================
                                        WARNINGS
                       Please study these warnings very carefully!
================================================================================


INFO   : the flag for use of LIBINT has been found!

================================================================================
                                       INPUT FILE
================================================================================
NAME = config_7520.inp
|  1> ! wB97X-D3 SP def2-SVP
|  2> %pal
|  3> nprocs 24
|  4> end
|  5> 
|  6> * xyz 0 1
|  7> S 	 -79.213 	 -22.4236 	 -54.1773 	 
|  8> C 	 -79.6192 	 -21.4676 	 -52.7752 	 
|  9> C 	 -79.2452 	 -22.2039 	 -51.5999 	 
| 10> C 	 -78.4491 	 -23.3511 	 -51.884 	 
| 11> C 	 -78.4394 	 -23.6628 	 -53.2084 	 
| 12> H 	 -77.8928 	 -24.0052 	 -51.1873 	 
| 13> C 	 -79.4847 	 -21.8088 	 -50.2055 	 
| 14> H 	 -79.6399 	 -20.75 	 -50.1839 	 
| 15> H 	 -78.5584 	 -21.9134 	 -49.6693 	 
| 16> C 	 -80.5605 	 -22.3931 	 -49.3724 	 
| 17> H 	 -80.1582 	 -23.2708 	 -48.7776 	 
| 18> H 	 -80.8119 	 -21.6386 	 -48.6582 	 
| 19> C 	 -81.9201 	 -22.7404 	 -50.1346 	 
| 20> H 	 -82.7782 	 -22.6774 	 -49.5744 	 
| 21> H 	 -82.0887 	 -22.0421 	 -50.919 	 
| 22> H 	 -81.8602 	 -23.7105 	 -50.6321 	 
| 23> S 	 -78.6521 	 -26.3941 	 -53.6734 	 
| 24> C 	 -77.3639 	 -27.2331 	 -54.5839 	 
| 25> C 	 -76.455 	 -26.291 	 -55.0023 	 
| 26> C 	 -76.7581 	 -24.9758 	 -54.6181 	 
| 27> C 	 -77.812 	 -24.8348 	 -53.7437 	 
| 28> H 	 -75.6413 	 -26.5458 	 -55.6167 	 
| 29> C 	 -75.9021 	 -23.8129 	 -55.0948 	 
| 30> H 	 -75.1137 	 -23.7176 	 -54.3649 	 
| 31> H 	 -76.3882 	 -22.8351 	 -55.1094 	 
| 32> C 	 -75.2876 	 -23.7881 	 -56.4843 	 
| 33> H 	 -74.57 	 -24.5907 	 -56.4355 	 
| 34> H 	 -74.4883 	 -23.0267 	 -56.6092 	 
| 35> C 	 -76.2524 	 -24.0115 	 -57.668 	 
| 36> H 	 -75.8777 	 -24.8518 	 -58.3174 	 
| 37> H 	 -76.3415 	 -23.0189 	 -58.1858 	 
| 38> H 	 -77.2864 	 -24.334 	 -57.3199 	 
| 39> H 	 -80.1704 	 -20.5359 	 -52.7717 	 
| 40> H 	 -77.423 	 -28.2521 	 -54.9546 	 
| 41> *
| 42> 
| 43>                          ****END OF INPUT****
================================================================================

                       ****************************
                       * Single Point Calculation *
                       ****************************

---------------------------------
CARTESIAN COORDINATES (ANGSTROEM)
---------------------------------
  S    -79.213000  -22.423600  -54.177300
  C    -79.619200  -21.467600  -52.775200
  C    -79.245200  -22.203900  -51.599900
  C    -78.449100  -23.351100  -51.884000
  C    -78.439400  -23.662800  -53.208400
  H    -77.892800  -24.005200  -51.187300
  C    -79.484700  -21.808800  -50.205500
  H    -79.639900  -20.750000  -50.183900
  H    -78.558400  -21.913400  -49.669300
  C    -80.560500  -22.393100  -49.372400
  H    -80.158200  -23.270800  -48.777600
  H    -80.811900  -21.638600  -48.658200
  C    -81.920100  -22.740400  -50.134600
  H    -82.778200  -22.677400  -49.574400
  H    -82.088700  -22.042100  -50.919000
  H    -81.860200  -23.710500  -50.632100
  S    -78.652100  -26.394100  -53.673400
  C    -77.363900  -27.233100  -54.583900
  C    -76.455000  -26.291000  -55.002300
  C    -76.758100  -24.975800  -54.618100
  C    -77.812000  -24.834800  -53.743700
  H    -75.641300  -26.545800  -55.616700
  C    -75.902100  -23.812900  -55.094800
  H    -75.113700  -23.717600  -54.364900
  H    -76.388200  -22.835100  -55.109400
  C    -75.287600  -23.788100  -56.484300
  H    -74.570000  -24.590700  -56.435500
  H    -74.488300  -23.026700  -56.609200
  C    -76.252400  -24.011500  -57.668000
  H    -75.877700  -24.851800  -58.317400
  H    -76.341500  -23.018900  -58.185800
  H    -77.286400  -24.334000  -57.319900
  H    -80.170400  -20.535900  -52.771700
  H    -77.423000  -28.252100  -54.954600

----------------------------
CARTESIAN COORDINATES (A.U.)
----------------------------
  NO LB      ZA    FRAG     MASS         X           Y           Z
   0 S    16.0000    0    32.060  -149.690876  -42.374463  -102.380260
   1 C     6.0000    0    12.011  -150.458483  -40.567885  -99.730675
   2 C     6.0000    0    12.011  -149.751725  -41.959290  -97.509680
   3 C     6.0000    0    12.011  -148.247314  -44.127184  -98.046551
   4 C     6.0000    0    12.011  -148.228984  -44.716212  -100.549304
   5 H     1.0000    0     1.008  -147.196060  -45.363254  -96.729979
   6 C     6.0000    0    12.011  -150.204315  -41.212659  -94.874645
   7 H     1.0000    0     1.008  -150.497600  -39.211817  -94.833827
   8 H     1.0000    0     1.008  -148.453862  -41.410325  -93.861374
   9 C     6.0000    0    12.011  -152.237282  -42.316826  -93.300315
  10 H     1.0000    0     1.008  -151.477045  -43.975439  -92.176305
  11 H     1.0000    0     1.008  -152.712359  -40.891028  -91.950672
  12 C     6.0000    0    12.011  -154.806554  -42.973128  -94.740664
  13 H     1.0000    0     1.008  -156.428128  -42.854075  -93.682039
  14 H     1.0000    0     1.008  -155.125162  -41.653532  -96.222965
  15 H     1.0000    0     1.008  -154.693359  -44.806351  -95.680803
  16 S    16.0000    0    32.060  -148.630929  -49.877621  -101.428027
  17 C     6.0000    0    12.011  -146.196584  -51.463101  -103.148622
  18 C     6.0000    0    12.011  -144.479012  -49.682790  -103.939284
  19 C     6.0000    0    12.011  -145.051788  -47.197422  -103.213251
  20 C     6.0000    0    12.011  -147.043370  -46.930971  -101.560874
  21 H     1.0000    0     1.008  -142.941341  -50.164292  -105.100331
  22 C     6.0000    0    12.011  -143.434182  -44.999859  -104.114083
  23 H     1.0000    0     1.008  -141.944322  -44.819769  -102.734772
  24 H     1.0000    0     1.008  -144.352778  -43.152085  -104.141673
  25 C     6.0000    0    12.011  -142.272945  -44.952994  -106.739858
  26 H     1.0000    0     1.008  -140.916878  -46.469688  -106.647639
  27 H     1.0000    0     1.008  -140.762487  -43.514157  -106.975885
  28 C     6.0000    0    12.011  -144.096153  -45.375159  -108.976727
  29 H     1.0000    0     1.008  -143.388073  -46.963096  -110.203915
  30 H     1.0000    0     1.008  -144.264528  -43.499417  -109.955227
  31 H     1.0000    0     1.008  -146.050130  -45.984596  -108.318913
  32 H     1.0000    0     1.008  -151.500100  -38.807227  -99.724061
  33 H     1.0000    0     1.008  -146.308266  -53.388732  -103.849144

--------------------------------
INTERNAL COORDINATES (ANGSTROEM)
--------------------------------
 S      0   0   0     0.000000000000     0.00000000     0.00000000
 C      1   0   0     1.744940930232     0.00000000     0.00000000
 C      2   1   0     1.436434398084   108.42154729     0.00000000
 C      3   2   1     1.424975740144   113.26605886    10.80691036
 C      4   3   2     1.360619836692   112.48722459   347.34918488
 H      4   3   2     1.105761000397   129.17391135   169.47739662
 C      3   2   1     1.468950516525   126.60975065   184.13222578
 H      7   3   2     1.070332210110   107.99098422   338.94687107
 H      7   3   2     1.075399130556   107.86064047   229.20496778
 C      7   3   2     1.480813202264   123.11786934   102.68141345
 H     10   7   3     1.134014823536   110.04472104    93.24998288
 H     10   7   3     1.068903105992   105.56028575   207.46862590
 C     10   7   3     1.596896455629   115.83776220   324.13274677
 H     13  10   7     1.026707675047   115.96418920   210.23196484
 H     13  10   7     1.063641015569   110.13104609   327.00854833
 H     13  10   7     1.091873742701   111.34592698    82.85541255
 S      5   4   3     2.778752594241   112.80000088   221.92820627
 C     17   5   4     1.786726193349   119.44862131   238.60198059
 C     18  17   5     1.374303525427   108.06340297   356.06277716
 C     19  18  17     1.403292660139   114.59982706     0.25635859
 C     20  19  18     1.376648673409   115.80090582     7.99207436
 H     19  18  17     1.050960555873   121.58959744   184.30887191
 C     20  19  18     1.520629902376   120.61892361   184.59168040
 H     23  20  19     1.078615158432   105.47947850   271.77812502
 H     23  20  19     1.092061907586   115.99896634   156.32364076
 C     23  20  19     1.519518193376   121.78918907    36.14104570
 H     26  23  20     1.077728147540   102.45720218   292.86730890
 H     26  23  20     1.110950250911   113.88804339   194.89802404
 C     26  23  20     1.543338034910   116.49861462    53.05546007
 H     29  26  23     1.126154758459   110.01625811   233.77163348
 H     29  26  23     1.123080767354   105.97855421   109.07138131
 H     29  26  23     1.137688823888   111.99489958   350.77148421
 H      2   1   3     1.082542645811   126.34566916   187.06953089
 H     18  17   5     1.085943046389   125.12374844   190.30021312

---------------------------
INTERNAL COORDINATES (A.U.)
---------------------------
 S      0   0   0     0.000000000000     0.00000000     0.00000000
 C      1   0   0     3.297460478009     0.00000000     0.00000000
 C      2   1   0     2.714467621723   108.42154729     0.00000000
 C      3   2   1     2.692813896355   113.26605886    10.80691036
 C      4   3   2     2.571198863729   112.48722459   347.34918488
 H      4   3   2     2.089585460322   129.17391135   169.47739662
 C      3   2   1     2.775914180515   126.60975065   184.13222578
 H      7   3   2     2.022634749423   107.99098422   338.94687107
 H      7   3   2     2.032209841407   107.86064047   229.20496778
 C      7   3   2     2.798331407774   123.11786934   102.68141345
 H     10   7   3     2.142977448291   110.04472104    93.24998288
 H     10   7   3     2.019934134023   105.56028575   207.46862590
 C     10   7   3     3.017696965368   115.83776220   324.13274677
 H     13  10   7     1.940196325433   115.96418920   210.23196484
 H     13  10   7     2.009990224231   110.13104609   327.00854833
 H     13  10   7     2.063342346525   111.34592698    82.85541255
 S      5   4   3     5.251081397038   112.80000088   221.92820627
 C     17   5   4     3.376423181734   119.44862131   238.60198059
 C     18  17   5     2.597057287939   108.06340297   356.06277716
 C     19  18  17     2.651838813405   114.59982706     0.25635859
 C     20  19  18     2.601488975370   115.80090582     7.99207436
 H     19  18  17     1.986027628153   121.58959744   184.30887191
 C     20  19  18     2.873574066542   120.61892361   184.59168040
 H     23  20  19     2.038287253333   105.47947850   271.77812502
 H     23  20  19     2.063697926625   115.99896634   156.32364076
 C     23  20  19     2.871473240991   121.78918907    36.14104570
 H     26  23  20     2.036611045669   102.45720218   292.86730890
 H     26  23  20     2.099391722634   113.88804339   194.89802404
 C     26  23  20     2.916486218044   116.49861462    53.05546007
 H     29  26  23     2.128124077900   110.01625811   233.77163348
 H     29  26  23     2.122315076573   105.97855421   109.07138131
 H     29  26  23     2.149920302772   111.99489958   350.77148421
 H      2   1   3     2.045709128874   126.34566916   187.06953089
 H     18  17   5     2.052134954711   125.12374844   190.30021312

---------------------
BASIS SET INFORMATION
---------------------
There are 3 groups of distinct atoms

 Group   1 Type S   : 10s7p1d contracted to 4s3p1d pattern {5311/511/1}
 Group   2 Type C   : 7s4p1d contracted to 3s2p1d pattern {511/31/1}
 Group   3 Type H   : 4s1p contracted to 2s1p pattern {31/1}

Atom   0S    basis set group =>   1
Atom   1C    basis set group =>   2
Atom   2C    basis set group =>   2
Atom   3C    basis set group =>   2
Atom   4C    basis set group =>   2
Atom   5H    basis set group =>   3
Atom   6C    basis set group =>   2
Atom   7H    basis set group =>   3
Atom   8H    basis set group =>   3
Atom   9C    basis set group =>   2
Atom  10H    basis set group =>   3
Atom  11H    basis set group =>   3
Atom  12C    basis set group =>   2
Atom  13H    basis set group =>   3
Atom  14H    basis set group =>   3
Atom  15H    basis set group =>   3
Atom  16S    basis set group =>   1
Atom  17C    basis set group =>   2
Atom  18C    basis set group =>   2
Atom  19C    basis set group =>   2
Atom  20C    basis set group =>   2
Atom  21H    basis set group =>   3
Atom  22C    basis set group =>   2
Atom  23H    basis set group =>   3
Atom  24H    basis set group =>   3
Atom  25C    basis set group =>   2
Atom  26H    basis set group =>   3
Atom  27H    basis set group =>   3
Atom  28C    basis set group =>   2
Atom  29H    basis set group =>   3
Atom  30H    basis set group =>   3
Atom  31H    basis set group =>   3
Atom  32H    basis set group =>   3
Atom  33H    basis set group =>   3


           ************************************************************
           *        Program running with 24 parallel MPI-processes    *
           *              working on a common directory               *
           ************************************************************
------------------------------------------------------------------------------
                           ORCA GTO INTEGRAL CALCULATION
------------------------------------------------------------------------------

                         BASIS SET STATISTICS AND STARTUP INFO

 # of primitive gaussian shells          ...  294
 # of primitive gaussian functions       ...  534
 # of contracted shells                  ...  154
 # of contracted basis functions         ...  322
 Highest angular momentum                ...    2
 Maximum contraction depth               ...    5
 Integral package used                   ... LIBINT
 Integral threshhold            Thresh   ...  1.000e-10
 Primitive cut-off              TCut     ...  1.000e-11


------------------------------ INTEGRAL EVALUATION ----------------------------


 * One electron integrals 
 Pre-screening matrix                    ... done
 Shell pair data                         ... done (   0.003 sec)



           ************************************************************
           *        Program running with 24 parallel MPI-processes    *
           *              working on a common directory               *
           ************************************************************
-------------------------------------------------------------------------------
                                 ORCA SCF
-------------------------------------------------------------------------------

------------
SCF SETTINGS
------------
Hamiltonian:
 Density Functional     Method          .... DFT(GTOs)
 Exchange Functional    Exchange        .... WB97X-D3
 Correlation Functional Correlation     .... WB97X-D3
 Gradients option       PostSCFGGA      .... off
 Hybrid DFT is turned on
   Fraction HF Exchange ScalHFX         ....  0.195728
   Scaling of DF-GGA-X  ScalDFX         ....  0.000000
   Scaling of DF-GGA-C  ScalDFC         ....  1.000000
   Scaling of DF-LDA-C  ScalLDAC        ....  1.000000
   Perturbative correction              ....  0.000000
   Density functional embedding theory  .... OFF
 Long-range corrected/Screened/Range-Separated Hybrid DFT is turned on
   Amount of maximum screened exact exchange              ....  0.804272
   Range separation parameter mu (erf(mu*r12)/r12)        ....  0.250000


General Settings:
 Integral files         IntName         .... config_7520
 Hartree-Fock type      HFTyp           .... RHF
 Total Charge           Charge          ....    0
 Multiplicity           Mult            ....    1
 Number of Electrons    NEL             ....  134
 Basis Dimension        Dim             ....  322
 Nuclear Repulsion      ENuc            ....   1289.8431761376 Eh

Convergence Acceleration:
 DIIS                   CNVDIIS         .... on
   Start iteration      DIISMaxIt       ....    12
   Startup error        DIISStart       ....  0.200000
   # of expansion vecs  DIISMaxEq       ....     5
   Bias factor          DIISBfac        ....   1.050
   Max. coefficient     DIISMaxC        ....  10.000
 Newton-Raphson         CNVNR           .... off
 SOSCF                  CNVSOSCF        .... on
   Start iteration      SOSCFMaxIt      ....   150
   Startup grad/error   SOSCFStart      ....  0.003300
 Level Shifting         CNVShift        .... on
   Level shift para.    LevelShift      ....    0.2500
   Turn off err/grad.   ShiftErr        ....    0.0010
 Zerner damping         CNVZerner       .... off
 Static damping         CNVDamp         .... on
   Fraction old density DampFac         ....    0.7000
   Max. Damping (<1)    DampMax         ....    0.9800
   Min. Damping (>=0)   DampMin         ....    0.0000
   Turn off err/grad.   DampErr         ....    0.1000
 Fernandez-Rico         CNVRico         .... off

SCF Procedure:
 Maximum # iterations   MaxIter         ....   125
 SCF integral mode      SCFMode         .... Direct
   Integral package                     .... LIBINT
 Reset frequency        DirectResetFreq ....    20
 Integral Threshold     Thresh          ....  1.000e-10 Eh
 Primitive CutOff       TCut            ....  1.000e-11 Eh

Convergence Tolerance:
 Convergence Check Mode ConvCheckMode   .... Total+1el-Energy
 Convergence forced     ConvForced      .... 0
 Energy Change          TolE            ....  1.000e-06 Eh
 1-El. energy change                    ....  1.000e-03 Eh
 Orbital Gradient       TolG            ....  5.000e-05
 Orbital Rotation angle TolX            ....  5.000e-05
 DIIS Error             TolErr          ....  1.000e-06


Diagonalization of the overlap matrix:
Smallest eigenvalue                        ... 6.326e-04
Time for diagonalization                   ...    0.015 sec
Threshold for overlap eigenvalues          ... 1.000e-08
Number of eigenvalues below threshold      ... 0
Time for construction of square roots      ...    0.026 sec
Total time needed                          ...    0.041 sec

-------------------
DFT GRID GENERATION
-------------------

General Integration Accuracy     IntAcc      ...  4.340
Radial Grid Type                 RadialGrid  ... Gauss-Chebyshev
Angular Grid (max. acc.)         AngularGrid ... Lebedev-110
Angular grid pruning method      GridPruning ... 3 (G Style)
Weight generation scheme         WeightScheme... Becke
Basis function cutoff            BFCut       ...    1.0000e-10
Integration weight cutoff        WCut        ...    1.0000e-14
Grids for H and He will be reduced by one unit

# of grid points (after initial pruning)     ...  41088 (   0.0 sec)
# of grid points (after weights+screening)   ...  36966 (   0.0 sec)
nearest neighbour list constructed           ...    0.0 sec
Grid point re-assignment to atoms done       ...    0.0 sec
Grid point division into batches done        ...    0.0 sec
Reduced shell lists constructed in    0.1 sec

Total number of grid points                  ...    36966
Total number of batches                      ...      592
Average number of points per batch           ...       62
Average number of grid points per atom       ...     1087
Average number of shells per batch           ...    82.15 (53.35%)
Average number of basis functions per batch  ...   161.00 (50.00%)
Average number of large shells per batch     ...    55.00 (66.95%)
Average number of large basis fcns per batch ...   109.62 (68.08%)
Maximum spatial batch extension              ...  13.94, 12.47, 10.71 au
Average spatial batch extension              ...   0.15,  0.13,  0.13 au

Time for grid setup =    0.149 sec

------------------------------
INITIAL GUESS: MODEL POTENTIAL
------------------------------
Loading Hartree-Fock densities                     ... done
Calculating cut-offs                               ... done
Setting up the integral package                    ... done
Initializing the effective Hamiltonian             ... done
Starting the Coulomb interaction                   ... done (   0.0 sec)
Reading the grid                                   ... done
Mapping shells                                     ... done
Starting the XC term evaluation                    ... done (   0.0 sec)
  promolecular density results
     # of electrons  =    133.995664957
     EX              =   -126.739420000
     EC              =     -4.620363064
     EX+EC           =   -131.359783064
Transforming the Hamiltonian                       ... done (   0.0 sec)
Diagonalizing the Hamiltonian                      ... done (   0.0 sec)
Back transforming the eigenvectors                 ... done (   0.0 sec)
Now organizing SCF variables                       ... done
                      ------------------
                      INITIAL GUESS DONE (   0.3 sec)
                      ------------------
--------------
SCF ITERATIONS
--------------
ITER       Energy         Delta-E        Max-DP      RMS-DP      [F,P]     Damp
               ***  Starting incremental Fock matrix formation  ***
  0  -1339.3967325695   0.000000000000 0.06583965  0.00157832  0.1629035 0.7000
  1  -1339.5840020953  -0.187269525849 0.04424606  0.00116120  0.0990826 0.7000
                               ***Turning on DIIS***
  2  -1339.6759831126  -0.091981017260 0.08211970  0.00222699  0.0519295 0.0000
  3  -1339.8153583762  -0.139375263631 0.04398075  0.00095846  0.0371862 0.0000
  4  -1339.8445303416  -0.029171965384 0.00705563  0.00021196  0.0074137 0.0000
                      *** Initiating the SOSCF procedure ***
                           *** Shutting down DIIS ***
                      *** Re-Reading the Fockian *** 
                      *** Removing any level shift *** 
ITER      Energy       Delta-E        Grad      Rot      Max-DP    RMS-DP
  5  -1339.84544619  -0.0009158449  0.001774  0.001774  0.003553  0.000108
               *** Restarting incremental Fock matrix formation ***
  6  -1339.84563277  -0.0001865792  0.001526  0.004159  0.002425  0.000070
  7  -1339.84569989  -0.0000671214  0.000761  0.004847  0.003084  0.000070
  8  -1339.84572026  -0.0000203750  0.000184  0.000448  0.000770  0.000019
  9  -1339.84572371  -0.0000034510  0.000071  0.000296  0.000225  0.000006
 10  -1339.84572391  -0.0000001924  0.000059  0.000158  0.000093  0.000002
                 **** Energy Check signals convergence ****
              ***Rediagonalizing the Fockian in SOSCF/NRSCF***

               *****************************************************
               *                     SUCCESS                       *
               *           SCF CONVERGED AFTER  11 CYCLES          *
               *****************************************************

Setting up the final grid:

General Integration Accuracy     IntAcc      ...  4.670
Radial Grid Type                 RadialGrid  ... Gauss-Chebyshev
Angular Grid (max. acc.)         AngularGrid ... Lebedev-302
Angular grid pruning method      GridPruning ... 3 (G Style)
Weight generation scheme         WeightScheme... Becke
Basis function cutoff            BFCut       ...    1.0000e-10
Integration weight cutoff        WCut        ...    1.0000e-14
Grids for H and He will be reduced by one unit

# of grid points (after initial pruning)     ... 161752 (   0.0 sec)
# of grid points (after weights+screening)   ... 142771 (   0.1 sec)
nearest neighbour list constructed           ...    0.0 sec
Grid point re-assignment to atoms done       ...    0.0 sec
Grid point division into batches done        ...    0.5 sec
Reduced shell lists constructed in    0.5 sec

Total number of grid points                  ...   142771
Total number of batches                      ...     2248
Average number of points per batch           ...       63
Average number of grid points per atom       ...     4199
Average number of shells per batch           ...    77.06 (50.04%)
Average number of basis functions per batch  ...   149.86 (46.54%)
Average number of large shells per batch     ...    49.65 (64.43%)
Average number of large basis fcns per batch ...    98.77 (65.91%)
Maximum spatial batch extension              ...  10.45, 12.26,  9.45 au
Average spatial batch extension              ...   0.08,  0.08,  0.08 au

Final grid set up in    0.8 sec
Final integration                            ... done (   0.3 sec)
Change in XC energy                          ...     0.007009625
Integrated number of electrons               ...   133.999761951
Previous integrated no of electrons          ...   134.001283268

----------------
TOTAL SCF ENERGY
----------------

Total Energy       :        -1339.83871440 Eh          -36458.86495 eV

Components:
Nuclear Repulsion  :         1289.84317614 Eh           35098.41719 eV
Electronic Energy  :        -2629.68189054 Eh          -71557.28214 eV
One Electron Energy:        -4396.42191612 Eh         -119632.72235 eV
Two Electron Energy:         1766.74002558 Eh           48075.44020 eV

Virial components:
Potential Energy   :        -2671.49795738 Eh          -72695.15517 eV
Kinetic Energy     :         1331.65924298 Eh           36236.29022 eV
Virial Ratio       :            2.00614232


DFT components:
N(Alpha)           :       66.999880975632 electrons
N(Beta)            :       66.999880975632 electrons
N(Total)           :      133.999761951265 electrons
E(XC)              :      -94.284278014222 Eh       
DFET-embed. en.    :        0.000000000000 Eh       

---------------
SCF CONVERGENCE
---------------

  Last Energy change         ...   -1.2086e-07  Tolerance :   1.0000e-06
  Last MAX-Density change    ...    3.3548e-05  Tolerance :   1.0000e-05
  Last RMS-Density change    ...    7.6951e-07  Tolerance :   1.0000e-06
  Last Orbital Gradient      ...    8.3001e-06  Tolerance :   5.0000e-05
  Last Orbital Rotation      ...    2.4784e-05  Tolerance :   5.0000e-05

             **** THE GBW FILE WAS UPDATED (config_7520.gbw) ****
             **** DENSITY FILE WAS UPDATED (config_7520.scfp) ****
             **** ENERGY FILE WAS UPDATED (config_7520.en.tmp) ****
             **** THE GBW FILE WAS UPDATED (config_7520.gbw) ****
             **** DENSITY FILE WAS UPDATED (config_7520.scfp) ****
----------------
ORBITAL ENERGIES
----------------

  NO   OCC          E(Eh)            E(eV) 
   0   2.0000     -88.968831     -2420.9650 
   1   2.0000     -88.963028     -2420.8071 
   2   2.0000     -10.323311      -280.9116 
   3   2.0000     -10.322761      -280.8966 
   4   2.0000     -10.322488      -280.8892 
   5   2.0000     -10.320512      -280.8354 
   6   2.0000     -10.302808      -280.3536 
   7   2.0000     -10.300963      -280.3035 
   8   2.0000     -10.292295      -280.0676 
   9   2.0000     -10.289267      -279.9852 
  10   2.0000     -10.288217      -279.9566 
  11   2.0000     -10.286940      -279.9219 
  12   2.0000     -10.283469      -279.8274 
  13   2.0000     -10.283324      -279.8235 
  14   2.0000     -10.277953      -279.6773 
  15   2.0000     -10.266926      -279.3773 
  16   2.0000      -8.082956      -219.9484 
  17   2.0000      -8.076977      -219.7857 
  18   2.0000      -6.041471      -164.3968 
  19   2.0000      -6.037428      -164.2868 
  20   2.0000      -6.035579      -164.2364 
  21   2.0000      -6.033864      -164.1898 
  22   2.0000      -6.031578      -164.1276 
  23   2.0000      -6.027669      -164.0212 
  24   2.0000      -1.006908       -27.3993 
  25   2.0000      -0.983528       -26.7632 
  26   2.0000      -0.915872       -24.9221 
  27   2.0000      -0.906160       -24.6579 
  28   2.0000      -0.871859       -23.7245 
  29   2.0000      -0.846427       -23.0325 
  30   2.0000      -0.840990       -22.8845 
  31   2.0000      -0.815366       -22.1872 
  32   2.0000      -0.785913       -21.3858 
  33   2.0000      -0.773768       -21.0553 
  34   2.0000      -0.708976       -19.2922 
  35   2.0000      -0.701773       -19.0962 
  36   2.0000      -0.693552       -18.8725 
  37   2.0000      -0.661303       -17.9950 
  38   2.0000      -0.638859       -17.3842 
  39   2.0000      -0.615447       -16.7472 
  40   2.0000      -0.598216       -16.2783 
  41   2.0000      -0.567007       -15.4290 
  42   2.0000      -0.554838       -15.0979 
  43   2.0000      -0.554041       -15.0762 
  44   2.0000      -0.545819       -14.8525 
  45   2.0000      -0.536027       -14.5860 
  46   2.0000      -0.519117       -14.1259 
  47   2.0000      -0.514611       -14.0033 
  48   2.0000      -0.502830       -13.6827 
  49   2.0000      -0.492045       -13.3892 
  50   2.0000      -0.486427       -13.2363 
  51   2.0000      -0.476358       -12.9623 
  52   2.0000      -0.473003       -12.8711 
  53   2.0000      -0.469078       -12.7643 
  54   2.0000      -0.461227       -12.5506 
  55   2.0000      -0.448008       -12.1909 
  56   2.0000      -0.443859       -12.0780 
  57   2.0000      -0.439946       -11.9716 
  58   2.0000      -0.428986       -11.6733 
  59   2.0000      -0.419546       -11.4164 
  60   2.0000      -0.414351       -11.2751 
  61   2.0000      -0.408016       -11.1027 
  62   2.0000      -0.390462       -10.6250 
  63   2.0000      -0.338211        -9.2032 
  64   2.0000      -0.333286        -9.0692 
  65   2.0000      -0.320149        -8.7117 
  66   2.0000      -0.302430        -8.2295 
  67   0.0000       0.033746         0.9183 
  68   0.0000       0.055422         1.5081 
  69   0.0000       0.111757         3.0411 
  70   0.0000       0.116396         3.1673 
  71   0.0000       0.130421         3.5489 
  72   0.0000       0.136920         3.7258 
  73   0.0000       0.144518         3.9325 
  74   0.0000       0.157426         4.2838 
  75   0.0000       0.166620         4.5340 
  76   0.0000       0.173078         4.7097 
  77   0.0000       0.183035         4.9806 
  78   0.0000       0.189797         5.1646 
  79   0.0000       0.191977         5.2240 
  80   0.0000       0.194290         5.2869 
  81   0.0000       0.199595         5.4313 
  82   0.0000       0.211014         5.7420 
  83   0.0000       0.225791         6.1441 
  84   0.0000       0.227197         6.1823 
  85   0.0000       0.227996         6.2041 
  86   0.0000       0.233280         6.3479 
  87   0.0000       0.237522         6.4633 
  88   0.0000       0.246295         6.7020 
  89   0.0000       0.249693         6.7945 
  90   0.0000       0.251710         6.8494 
  91   0.0000       0.275028         7.4839 
  92   0.0000       0.276348         7.5198 
  93   0.0000       0.289833         7.8867 
  94   0.0000       0.304955         8.2982 
  95   0.0000       0.327438         8.9101 
  96   0.0000       0.330367         8.9897 
  97   0.0000       0.343681         9.3520 
  98   0.0000       0.368214        10.0196 
  99   0.0000       0.374937        10.2025 
 100   0.0000       0.388847        10.5811 
 101   0.0000       0.414723        11.2852 
 102   0.0000       0.418630        11.3915 
 103   0.0000       0.424333        11.5467 
 104   0.0000       0.440030        11.9738 
 105   0.0000       0.452570        12.3151 
 106   0.0000       0.457510        12.4495 
 107   0.0000       0.469360        12.7719 
 108   0.0000       0.487899        13.2764 
 109   0.0000       0.494080        13.4446 
 110   0.0000       0.500087        13.6081 
 111   0.0000       0.511813        13.9271 
 112   0.0000       0.519701        14.1418 
 113   0.0000       0.529011        14.3951 
 114   0.0000       0.533083        14.5059 
 115   0.0000       0.537902        14.6370 
 116   0.0000       0.547763        14.9054 
 117   0.0000       0.551627        15.0105 
 118   0.0000       0.562560        15.3080 
 119   0.0000       0.571176        15.5425 
 120   0.0000       0.591298        16.0900 
 121   0.0000       0.595432        16.2025 
 122   0.0000       0.611617        16.6429 
 123   0.0000       0.617456        16.8018 
 124   0.0000       0.622450        16.9377 
 125   0.0000       0.633461        17.2374 
 126   0.0000       0.641352        17.4521 
 127   0.0000       0.648111        17.6360 
 128   0.0000       0.653642        17.7865 
 129   0.0000       0.668098        18.1799 
 130   0.0000       0.675205        18.3733 
 131   0.0000       0.682080        18.5603 
 132   0.0000       0.687377        18.7045 
 133   0.0000       0.695892        18.9362 
 134   0.0000       0.710595        19.3363 
 135   0.0000       0.716111        19.4864 
 136   0.0000       0.717971        19.5370 
 137   0.0000       0.723527        19.6882 
 138   0.0000       0.728865        19.8334 
 139   0.0000       0.736191        20.0328 
 140   0.0000       0.744813        20.2674 
 141   0.0000       0.746442        20.3117 
 142   0.0000       0.750211        20.4143 
 143   0.0000       0.754760        20.5381 
 144   0.0000       0.758246        20.6329 
 145   0.0000       0.767587        20.8871 
 146   0.0000       0.769502        20.9392 
 147   0.0000       0.772377        21.0175 
 148   0.0000       0.775440        21.1008 
 149   0.0000       0.779300        21.2058 
 150   0.0000       0.787812        21.4375 
 151   0.0000       0.788433        21.4544 
 152   0.0000       0.795151        21.6372 
 153   0.0000       0.800917        21.7941 
 154   0.0000       0.805629        21.9223 
 155   0.0000       0.806568        21.9478 
 156   0.0000       0.817673        22.2500 
 157   0.0000       0.820950        22.3392 
 158   0.0000       0.822598        22.3840 
 159   0.0000       0.829247        22.5650 
 160   0.0000       0.831933        22.6381 
 161   0.0000       0.838902        22.8277 
 162   0.0000       0.844464        22.9790 
 163   0.0000       0.851872        23.1806 
 164   0.0000       0.853123        23.2147 
 165   0.0000       0.858458        23.3598 
 166   0.0000       0.861207        23.4346 
 167   0.0000       0.871070        23.7030 
 168   0.0000       0.880688        23.9647 
 169   0.0000       0.900724        24.5100 
 170   0.0000       0.903270        24.5792 
 171   0.0000       0.912803        24.8386 
 172   0.0000       0.922388        25.0995 
 173   0.0000       0.941548        25.6208 
 174   0.0000       0.953658        25.9504 
 175   0.0000       0.968407        26.3517 
 176   0.0000       0.986790        26.8519 
 177   0.0000       0.998839        27.1798 
 178   0.0000       1.011846        27.5337 
 179   0.0000       1.018056        27.7027 
 180   0.0000       1.045107        28.4388 
 181   0.0000       1.077675        29.3250 
 182   0.0000       1.097050        29.8522 
 183   0.0000       1.106826        30.1183 
 184   0.0000       1.115772        30.3617 
 185   0.0000       1.131208        30.7817 
 186   0.0000       1.139479        31.0068 
 187   0.0000       1.175483        31.9865 
 188   0.0000       1.185409        32.2566 
 189   0.0000       1.195673        32.5359 
 190   0.0000       1.214467        33.0473 
 191   0.0000       1.229743        33.4630 
 192   0.0000       1.249139        33.9908 
 193   0.0000       1.268944        34.5297 
 194   0.0000       1.307211        35.5710 
 195   0.0000       1.310799        35.6686 
 196   0.0000       1.320144        35.9229 
 197   0.0000       1.335039        36.3283 
 198   0.0000       1.357251        36.9327 
 199   0.0000       1.364506        37.1301 
 200   0.0000       1.382496        37.6196 
 201   0.0000       1.400007        38.0961 
 202   0.0000       1.433887        39.0181 
 203   0.0000       1.443335        39.2751 
 204   0.0000       1.444582        39.3091 
 205   0.0000       1.467117        39.9223 
 206   0.0000       1.474353        40.1192 
 207   0.0000       1.518547        41.3218 
 208   0.0000       1.524417        41.4815 
 209   0.0000       1.550537        42.1922 
 210   0.0000       1.587525        43.1987 
 211   0.0000       1.608277        43.7634 
 212   0.0000       1.611742        43.8577 
 213   0.0000       1.624272        44.1987 
 214   0.0000       1.647120        44.8204 
 215   0.0000       1.654336        45.0168 
 216   0.0000       1.669514        45.4298 
 217   0.0000       1.699510        46.2460 
 218   0.0000       1.762238        47.9529 
 219   0.0000       1.765332        48.0371 
 220   0.0000       1.780544        48.4511 
 221   0.0000       1.805542        49.1313 
 222   0.0000       1.812246        49.3137 
 223   0.0000       1.817905        49.4677 
 224   0.0000       1.824555        49.6487 
 225   0.0000       1.830911        49.8216 
 226   0.0000       1.840158        50.0732 
 227   0.0000       1.843060        50.1522 
 228   0.0000       1.851063        50.3700 
 229   0.0000       1.855868        50.5007 
 230   0.0000       1.864271        50.7294 
 231   0.0000       1.870009        50.8855 
 232   0.0000       1.879406        51.1412 
 233   0.0000       1.894923        51.5635 
 234   0.0000       1.906067        51.8667 
 235   0.0000       1.911825        52.0234 
 236   0.0000       1.920705        52.2650 
 237   0.0000       1.938433        52.7474 
 238   0.0000       1.941867        52.8409 
 239   0.0000       1.953796        53.1655 
 240   0.0000       1.956888        53.2496 
 241   0.0000       1.966926        53.5228 
 242   0.0000       1.981762        53.9265 
 243   0.0000       1.989830        54.1460 
 244   0.0000       2.006854        54.6093 
 245   0.0000       2.017616        54.9021 
 246   0.0000       2.024734        55.0958 
 247   0.0000       2.027666        55.1756 
 248   0.0000       2.033917        55.3457 
 249   0.0000       2.043078        55.5950 
 250   0.0000       2.052236        55.8442 
 251   0.0000       2.059258        56.0353 
 252   0.0000       2.078059        56.5469 
 253   0.0000       2.079292        56.5804 
 254   0.0000       2.106864        57.3307 
 255   0.0000       2.109733        57.4087 
 256   0.0000       2.123880        57.7937 
 257   0.0000       2.140056        58.2339 
 258   0.0000       2.152611        58.5755 
 259   0.0000       2.154650        58.6310 
 260   0.0000       2.172711        59.1225 
 261   0.0000       2.189660        59.5837 
 262   0.0000       2.204154        59.9781 
 263   0.0000       2.216450        60.3127 
 264   0.0000       2.242339        61.0171 
 265   0.0000       2.254697        61.3534 
 266   0.0000       2.275398        61.9167 
 267   0.0000       2.296796        62.4990 
 268   0.0000       2.299401        62.5699 
 269   0.0000       2.311822        62.9079 
 270   0.0000       2.324462        63.2518 
 271   0.0000       2.346578        63.8536 
 272   0.0000       2.351443        63.9860 
 273   0.0000       2.380446        64.7752 
 274   0.0000       2.389946        65.0337 
 275   0.0000       2.408051        65.5264 
 276   0.0000       2.433699        66.2243 
 277   0.0000       2.446989        66.5859 
 278   0.0000       2.460615        66.9567 
 279   0.0000       2.490918        67.7813 
 280   0.0000       2.494881        67.8892 
 281   0.0000       2.515642        68.4541 
 282   0.0000       2.527871        68.7869 
 283   0.0000       2.533161        68.9308 
 284   0.0000       2.542284        69.1791 
 285   0.0000       2.545474        69.2659 
 286   0.0000       2.571850        69.9836 
 287   0.0000       2.591394        70.5154 
 288   0.0000       2.603334        70.8403 
 289   0.0000       2.623110        71.3784 
 290   0.0000       2.644423        71.9584 
 291   0.0000       2.656987        72.3003 
 292   0.0000       2.702232        73.5315 
 293   0.0000       2.712204        73.8028 
 294   0.0000       2.731007        74.3145 
 295   0.0000       2.761463        75.1432 
 296   0.0000       2.780184        75.6527 
 297   0.0000       2.785078        75.7858 
 298   0.0000       2.825539        76.8868 
 299   0.0000       2.847436        77.4827 
 300   0.0000       2.848316        77.5066 
 301   0.0000       2.873918        78.2033 
 302   0.0000       2.897766        78.8522 
 303   0.0000       2.925430        79.6050 
 304   0.0000       2.961028        80.5737 
 305   0.0000       2.977955        81.0343 
 306   0.0000       2.980677        81.1083 
 307   0.0000       2.982768        81.1652 
 308   0.0000       3.011241        81.9400 
 309   0.0000       3.030957        82.4765 
 310   0.0000       3.060706        83.2860 
 311   0.0000       3.077733        83.7494 
 312   0.0000       3.109395        84.6109 
 313   0.0000       3.122340        84.9632 
 314   0.0000       3.138368        85.3993 
 315   0.0000       3.184086        86.6434 
 316   0.0000       3.213904        87.4548 
 317   0.0000       3.220207        87.6263 
 318   0.0000       3.251623        88.4812 
 319   0.0000       3.290251        89.5323 
 320   0.0000       3.390640        92.2640 
 321   0.0000       3.460081        94.1536 

                    ********************************
                    * MULLIKEN POPULATION ANALYSIS *
                    ********************************

-----------------------
MULLIKEN ATOMIC CHARGES
-----------------------
   0 S :    0.128428
   1 C :   -0.119272
   2 C :   -0.096869
   3 C :    0.015998
   4 C :   -0.156035
   5 H :    0.031341
   6 C :    0.088184
   7 H :    0.000937
   8 H :    0.019897
   9 C :   -0.077654
  10 H :    0.036866
  11 H :    0.022920
  12 C :   -0.010434
  13 H :    0.015726
  14 H :    0.005261
  15 H :    0.040171
  16 S :    0.094326
  17 C :   -0.094026
  18 C :   -0.011425
  19 C :   -0.022429
  20 C :   -0.165619
  21 H :   -0.000129
  22 C :    0.062807
  23 H :    0.031790
  24 H :    0.024545
  25 C :   -0.086160
  26 H :   -0.002772
  27 H :    0.026749
  28 C :   -0.081335
  29 H :    0.047941
  30 H :    0.053756
  31 H :    0.054505
  32 H :    0.054839
  33 H :    0.067174
Sum of atomic charges:   -0.0000000

--------------------------------
MULLIKEN REDUCED ORBITAL CHARGES
--------------------------------
  0 S s       :     5.837647  s :     5.837647
      pz      :     3.312530  p :     9.925630
      px      :     3.516406
      py      :     3.096694
      dz2     :     0.016121  d :     0.108295
      dxz     :     0.018402
      dyz     :     0.036892
      dx2y2   :     0.019829
      dxy     :     0.017051
  1 C s       :     3.190341  s :     3.190341
      pz      :     0.879181  p :     2.897431
      px      :     1.075686
      py      :     0.942563
      dz2     :     0.007149  d :     0.031500
      dxz     :     0.006929
      dyz     :     0.010260
      dx2y2   :     0.003007
      dxy     :     0.004155
  2 C s       :     3.099177  s :     3.099177
      pz      :     0.971682  p :     2.953925
      px      :     0.985779
      py      :     0.996464
      dz2     :     0.011533  d :     0.043768
      dxz     :     0.008883
      dyz     :     0.011201
      dx2y2   :     0.006389
      dxy     :     0.005761
  3 C s       :     3.195347  s :     3.195347
      pz      :     0.899976  p :     2.753808
      px      :     0.949221
      py      :     0.904612
      dz2     :     0.009280  d :     0.034847
      dxz     :     0.007433
      dyz     :     0.008338
      dx2y2   :     0.004571
      dxy     :     0.005225
  4 C s       :     3.046400  s :     3.046400
      pz      :     0.977922  p :     3.062770
      px      :     1.069658
      py      :     1.015189
      dz2     :     0.009706  d :     0.046865
      dxz     :     0.009773
      dyz     :     0.015347
      dx2y2   :     0.005312
      dxy     :     0.006728
  5 H s       :     0.945309  s :     0.945309
      pz      :     0.008065  p :     0.023351
      px      :     0.007281
      py      :     0.008004
  6 C s       :     2.900686  s :     2.900686
      pz      :     0.949857  p :     2.971385
      px      :     0.997972
      py      :     1.023556
      dz2     :     0.009816  d :     0.039745
      dxz     :     0.011147
      dyz     :     0.005508
      dx2y2   :     0.009992
      dxy     :     0.003281
  7 H s       :     0.974251  s :     0.974251
      pz      :     0.004766  p :     0.024812
      px      :     0.005618
      py      :     0.014429
  8 H s       :     0.955792  s :     0.955792
      pz      :     0.006875  p :     0.024311
      px      :     0.011928
      py      :     0.005508
  9 C s       :     3.051135  s :     3.051135
      pz      :     1.013497  p :     2.989912
      px      :     0.968218
      py      :     1.008197
      dz2     :     0.003306  d :     0.036607
      dxz     :     0.008441
      dyz     :     0.010543
      dx2y2   :     0.008008
      dxy     :     0.006310
 10 H s       :     0.942667  s :     0.942667
      pz      :     0.006259  p :     0.020467
      px      :     0.004263
      py      :     0.009945
 11 H s       :     0.953160  s :     0.953160
      pz      :     0.009053  p :     0.023920
      px      :     0.005361
      py      :     0.009506
 12 C s       :     2.966848  s :     2.966848
      pz      :     1.011967  p :     3.016017
      px      :     0.968194
      py      :     1.035856
      dz2     :     0.001814  d :     0.027569
      dxz     :     0.007277
      dyz     :     0.008317
      dx2y2   :     0.008084
      dxy     :     0.002077
 13 H s       :     0.957335  s :     0.957335
      pz      :     0.008922  p :     0.026938
      px      :     0.011665
      py      :     0.006351
 14 H s       :     0.968767  s :     0.968767
      pz      :     0.011250  p :     0.025972
      px      :     0.005027
      py      :     0.009694
 15 H s       :     0.936204  s :     0.936204
      pz      :     0.006939  p :     0.023625
      px      :     0.004194
      py      :     0.012492
 16 S s       :     5.851790  s :     5.851790
      pz      :     3.564209  p :     9.952722
      px      :     3.370978
      py      :     3.017535
      dz2     :     0.014593  d :     0.101162
      dxz     :     0.015140
      dyz     :     0.020015
      dx2y2   :     0.017062
      dxy     :     0.034352
 17 C s       :     3.169637  s :     3.169637
      pz      :     1.023572  p :     2.890346
      px      :     0.927421
      py      :     0.939352
      dz2     :     0.004792  d :     0.034043
      dxz     :     0.005845
      dyz     :     0.006165
      dx2y2   :     0.008895
      dxy     :     0.008347
 18 C s       :     3.172483  s :     3.172483
      pz      :     0.968898  p :     2.803064
      px      :     0.893946
      py      :     0.940220
      dz2     :     0.003569  d :     0.035878
      dxz     :     0.004878
      dyz     :     0.008086
      dx2y2   :     0.009442
      dxy     :     0.009903
 19 C s       :     3.047799  s :     3.047799
      pz      :     0.965556  p :     2.930052
      px      :     1.011255
      py      :     0.953241
      dz2     :     0.008114  d :     0.044578
      dxz     :     0.006083
      dyz     :     0.008217
      dx2y2   :     0.011682
      dxy     :     0.010482
 20 C s       :     3.072109  s :     3.072109
      pz      :     1.098928  p :     3.048717
      px      :     1.014277
      py      :     0.935512
      dz2     :     0.007779  d :     0.044793
      dxz     :     0.006493
      dyz     :     0.007000
      dx2y2   :     0.010691
      dxy     :     0.012831
 21 H s       :     0.974873  s :     0.974873
      pz      :     0.009142  p :     0.025256
      px      :     0.011811
      py      :     0.004303
 22 C s       :     2.938401  s :     2.938401
      pz      :     0.971053  p :     2.962673
      px      :     1.011756
      py      :     0.979864
      dz2     :     0.007642  d :     0.036119
      dxz     :     0.009844
      dyz     :     0.005043
      dx2y2   :     0.005502
      dxy     :     0.008089
 23 H s       :     0.943819  s :     0.943819
      pz      :     0.009129  p :     0.024391
      px      :     0.010010
      py      :     0.005251
 24 H s       :     0.951164  s :     0.951164
      pz      :     0.005511  p :     0.024291
      px      :     0.006676
      py      :     0.012104
 25 C s       :     3.036289  s :     3.036289
      pz      :     0.973813  p :     3.012351
      px      :     0.976940
      py      :     1.061599
      dz2     :     0.011259  d :     0.037520
      dxz     :     0.008256
      dyz     :     0.004560
      dx2y2   :     0.001579
      dxy     :     0.011867
 26 H s       :     0.977384  s :     0.977384
      pz      :     0.004815  p :     0.025389
      px      :     0.009104
      py      :     0.011470
 27 H s       :     0.950415  s :     0.950415
      pz      :     0.002842  p :     0.022836
      px      :     0.009238
      py      :     0.010756
 28 C s       :     3.068773  s :     3.068773
      pz      :     0.994610  p :     2.986925
      px      :     0.991462
      py      :     1.000853
      dz2     :     0.003179  d :     0.025638
      dxz     :     0.005912
      dyz     :     0.007160
      dx2y2   :     0.006075
      dxy     :     0.003313
 29 H s       :     0.930421  s :     0.930421
      pz      :     0.006981  p :     0.021638
      px      :     0.005412
      py      :     0.009245
 30 H s       :     0.924392  s :     0.924392
      pz      :     0.006059  p :     0.021852
      px      :     0.004464
      py      :     0.011329
 31 H s       :     0.923345  s :     0.923345
      pz      :     0.004696  p :     0.022151
      px      :     0.012228
      py      :     0.005227
 32 H s       :     0.921336  s :     0.921336
      pz      :     0.002746  p :     0.023825
      px      :     0.008414
      py      :     0.012665
 33 H s       :     0.909209  s :     0.909209
      pz      :     0.005923  p :     0.023617
      px      :     0.003472
      py      :     0.014222


                     *******************************
                     * LOEWDIN POPULATION ANALYSIS *
                     *******************************

----------------------
LOEWDIN ATOMIC CHARGES
----------------------
   0 S :    0.417809
   1 C :   -0.204369
   2 C :   -0.057028
   3 C :   -0.056973
   4 C :   -0.198718
   5 H :    0.042018
   6 C :   -0.046407
   7 H :    0.027587
   8 H :    0.035047
   9 C :   -0.036735
  10 H :    0.027585
  11 H :    0.023811
  12 C :   -0.058572
  13 H :    0.013691
  14 H :    0.020073
  15 H :    0.031449
  16 S :    0.385218
  17 C :   -0.168382
  18 C :   -0.067683
  19 C :   -0.054408
  20 C :   -0.197505
  21 H :    0.024171
  22 C :   -0.037482
  23 H :    0.034752
  24 H :    0.024226
  25 C :   -0.060100
  26 H :    0.011843
  27 H :    0.033077
  28 C :   -0.077978
  29 H :    0.034694
  30 H :    0.035065
  31 H :    0.035763
  32 H :    0.029753
  33 H :    0.034708

-------------------------------
LOEWDIN REDUCED ORBITAL CHARGES
-------------------------------
  0 S s       :     5.504043  s :     5.504043
      pz      :     3.354726  p :     9.943849
      px      :     3.483579
      py      :     3.105544
      dz2     :     0.018024  d :     0.134299
      dxz     :     0.021264
      dyz     :     0.047574
      dx2y2   :     0.024734
      dxy     :     0.022702
  1 C s       :     2.945652  s :     2.945652
      pz      :     1.014251  p :     3.184713
      px      :     1.103585
      py      :     1.066876
      dz2     :     0.019098  d :     0.074005
      dxz     :     0.015251
      dyz     :     0.026161
      dx2y2   :     0.005314
      dxy     :     0.008180
  2 C s       :     2.862814  s :     2.862814
      pz      :     1.055156  p :     3.085390
      px      :     1.000505
      py      :     1.029730
      dz2     :     0.031439  d :     0.108824
      dxz     :     0.019749
      dyz     :     0.030019
      dx2y2   :     0.013195
      dxy     :     0.014422
  3 C s       :     2.867463  s :     2.867463
      pz      :     1.056666  p :     3.096670
      px      :     1.013330
      py      :     1.026674
      dz2     :     0.028407  d :     0.092840
      dxz     :     0.018091
      dyz     :     0.023718
      dx2y2   :     0.009377
      dxy     :     0.013246
  4 C s       :     2.895474  s :     2.895474
      pz      :     1.085854  p :     3.190267
      px      :     1.056786
      py      :     1.047626
      dz2     :     0.026932  d :     0.112978
      dxz     :     0.021230
      dyz     :     0.037630
      dx2y2   :     0.012183
      dxy     :     0.015004
  5 H s       :     0.891298  s :     0.891298
      pz      :     0.022561  p :     0.066684
      px      :     0.020616
      py      :     0.023507
  6 C s       :     2.799004  s :     2.799004
      pz      :     1.028574  p :     3.144939
      px      :     1.052646
      py      :     1.063719
      dz2     :     0.026522  d :     0.102464
      dxz     :     0.028613
      dyz     :     0.013610
      dx2y2   :     0.025397
      dxy     :     0.008321
  7 H s       :     0.901101  s :     0.901101
      pz      :     0.014851  p :     0.071312
      px      :     0.016138
      py      :     0.040322
  8 H s       :     0.894741  s :     0.894741
      pz      :     0.020776  p :     0.070212
      px      :     0.033988
      py      :     0.015448
  9 C s       :     2.836976  s :     2.836976
      pz      :     1.041565  p :     3.111860
      px      :     1.010662
      py      :     1.059633
      dz2     :     0.006608  d :     0.087900
      dxz     :     0.022123
      dyz     :     0.025914
      dx2y2   :     0.018227
      dxy     :     0.015027
 10 H s       :     0.913072  s :     0.913072
      pz      :     0.018582  p :     0.059344
      px      :     0.013697
      py      :     0.027064
 11 H s       :     0.904553  s :     0.904553
      pz      :     0.027012  p :     0.071636
      px      :     0.016776
      py      :     0.027848
 12 C s       :     2.818541  s :     2.818541
      pz      :     1.068490  p :     3.170478
      px      :     1.025969
      py      :     1.076019
      dz2     :     0.004291  d :     0.069553
      dxz     :     0.019316
      dyz     :     0.020535
      dx2y2   :     0.021178
      dxy     :     0.004232
 13 H s       :     0.907513  s :     0.907513
      pz      :     0.025196  p :     0.078796
      px      :     0.035466
      py      :     0.018133
 14 H s       :     0.907871  s :     0.907871
      pz      :     0.030307  p :     0.072056
      px      :     0.015389
      py      :     0.026359
 15 H s       :     0.902326  s :     0.902326
      pz      :     0.019340  p :     0.066225
      px      :     0.012714
      py      :     0.034171
 16 S s       :     5.530658  s :     5.530658
      pz      :     3.539404  p :     9.960699
      px      :     3.389824
      py      :     3.031471
      dz2     :     0.017367  d :     0.123426
      dxz     :     0.016853
      dyz     :     0.025146
      dx2y2   :     0.020833
      dxy     :     0.043226
 17 C s       :     2.939811  s :     2.939811
      pz      :     1.056285  p :     3.149983
      px      :     1.029148
      py      :     1.064549
      dz2     :     0.009896  d :     0.078588
      dxz     :     0.013055
      dyz     :     0.013084
      dx2y2   :     0.021146
      dxy     :     0.021407
 18 C s       :     2.850940  s :     2.850940
      pz      :     1.020897  p :     3.120901
      px      :     1.050709
      py      :     1.049296
      dz2     :     0.008171  d :     0.095842
      dxz     :     0.012637
      dyz     :     0.020001
      dx2y2   :     0.026327
      dxy     :     0.028707
 19 C s       :     2.853728  s :     2.853728
      pz      :     1.005514  p :     3.087703
      px      :     1.031629
      py      :     1.050560
      dz2     :     0.017592  d :     0.112978
      dxz     :     0.017012
      dyz     :     0.020385
      dx2y2   :     0.030811
      dxy     :     0.027178
 20 C s       :     2.899526  s :     2.899526
      pz      :     1.101391  p :     3.189123
      px      :     1.074188
      py      :     1.013544
      dz2     :     0.016267  d :     0.108856
      dxz     :     0.017068
      dyz     :     0.016776
      dx2y2   :     0.026149
      dxy     :     0.032596
 21 H s       :     0.899959  s :     0.899959
      pz      :     0.026998  p :     0.075870
      px      :     0.033761
      py      :     0.015112
 22 C s       :     2.817530  s :     2.817530
      pz      :     1.033072  p :     3.129231
      px      :     1.059830
      py      :     1.036329
      dz2     :     0.020543  d :     0.090721
      dxz     :     0.024833
      dyz     :     0.010627
      dx2y2   :     0.013127
      dxy     :     0.021591
 23 H s       :     0.894029  s :     0.894029
      pz      :     0.027013  p :     0.071218
      px      :     0.029086
      py      :     0.015119
 24 H s       :     0.904687  s :     0.904687
      pz      :     0.016075  p :     0.071087
      px      :     0.019457
      py      :     0.035555
 25 C s       :     2.831258  s :     2.831258
      pz      :     1.013874  p :     3.138721
      px      :     1.028355
      py      :     1.096492
      dz2     :     0.027073  d :     0.090122
      dxz     :     0.022410
      dyz     :     0.008181
      dx2y2   :     0.003119
      dxy     :     0.029340
 26 H s       :     0.914355  s :     0.914355
      pz      :     0.016276  p :     0.073802
      px      :     0.026666
      py      :     0.030860
 27 H s       :     0.900493  s :     0.900493
      pz      :     0.011283  p :     0.066430
      px      :     0.027481
      py      :     0.027665
 28 C s       :     2.861611  s :     2.861611
      pz      :     1.045347  p :     3.151374
      px      :     1.048511
      py      :     1.057516
      dz2     :     0.007673  d :     0.064993
      dxz     :     0.015590
      dyz     :     0.018176
      dx2y2   :     0.015998
      dxy     :     0.007557
 29 H s       :     0.904404  s :     0.904404
      pz      :     0.020310  p :     0.060902
      px      :     0.014392
      py      :     0.026200
 30 H s       :     0.902905  s :     0.902905
      pz      :     0.017471  p :     0.062030
      px      :     0.011784
      py      :     0.032776
 31 H s       :     0.904278  s :     0.904278
      pz      :     0.013224  p :     0.059959
      px      :     0.033918
      py      :     0.012817
 32 H s       :     0.894497  s :     0.894497
      pz      :     0.010716  p :     0.075749
      px      :     0.026282
      py      :     0.038751
 33 H s       :     0.891259  s :     0.891259
      pz      :     0.019955  p :     0.074033
      px      :     0.011979
      py      :     0.042099


                      *****************************
                      * MAYER POPULATION ANALYSIS *
                      *****************************

  NA   - Mulliken gross atomic population
  ZA   - Total nuclear charge
  QA   - Mulliken gross atomic charge
  VA   - Mayer's total valence
  BVA  - Mayer's bonded valence
  FA   - Mayer's free valence

  ATOM       NA         ZA         QA         VA         BVA        FA
  0 S     15.8716    16.0000     0.1284     2.4986     2.4986     0.0000
  1 C      6.1193     6.0000    -0.1193     3.8306     3.8306     0.0000
  2 C      6.0969     6.0000    -0.0969     4.0059     4.0059    -0.0000
  3 C      5.9840     6.0000     0.0160     3.9127     3.9127     0.0000
  4 C      6.1560     6.0000    -0.1560     3.9287     3.9287     0.0000
  5 H      0.9687     1.0000     0.0313     1.0010     1.0010     0.0000
  6 C      5.9118     6.0000     0.0882     3.9844     3.9844    -0.0000
  7 H      0.9991     1.0000     0.0009     0.9875     0.9875     0.0000
  8 H      0.9801     1.0000     0.0199     0.9853     0.9853    -0.0000
  9 C      6.0777     6.0000    -0.0777     4.1113     4.1113    -0.0000
 10 H      0.9631     1.0000     0.0369     0.9767     0.9767    -0.0000
 11 H      0.9771     1.0000     0.0229     0.9724     0.9724    -0.0000
 12 C      6.0104     6.0000    -0.0104     3.9939     3.9939    -0.0000
 13 H      0.9843     1.0000     0.0157     0.9929     0.9929     0.0000
 14 H      0.9947     1.0000     0.0053     1.0027     1.0027    -0.0000
 15 H      0.9598     1.0000     0.0402     0.9906     0.9906     0.0000
 16 S     15.9057    16.0000     0.0943     2.4644     2.4644    -0.0000
 17 C      6.0940     6.0000    -0.0940     3.8235     3.8235     0.0000
 18 C      6.0114     6.0000    -0.0114     3.9380     3.9380    -0.0000
 19 C      6.0224     6.0000    -0.0224     4.0027     4.0027    -0.0000
 20 C      6.1656     6.0000    -0.1656     3.9172     3.9172    -0.0000
 21 H      1.0001     1.0000    -0.0001     1.0007     1.0007    -0.0000
 22 C      5.9372     6.0000     0.0628     3.9853     3.9853    -0.0000
 23 H      0.9682     1.0000     0.0318     0.9850     0.9850    -0.0000
 24 H      0.9755     1.0000     0.0245     0.9996     0.9996    -0.0000
 25 C      6.0862     6.0000    -0.0862     4.0560     4.0560     0.0000
 26 H      1.0028     1.0000    -0.0028     0.9725     0.9725    -0.0000
 27 H      0.9733     1.0000     0.0267     0.9822     0.9822     0.0000
 28 C      6.0813     6.0000    -0.0813     3.9688     3.9688    -0.0000
 29 H      0.9521     1.0000     0.0479     0.9832     0.9832    -0.0000
 30 H      0.9462     1.0000     0.0538     0.9821     0.9821    -0.0000
 31 H      0.9455     1.0000     0.0545     0.9911     0.9911     0.0000
 32 H      0.9452     1.0000     0.0548     1.0051     1.0051    -0.0000
 33 H      0.9328     1.0000     0.0672     0.9952     0.9952    -0.0000

  Mayer bond orders larger than 0.100000
B(  0-S ,  1-C ) :   1.1468 B(  0-S ,  4-C ) :   1.1391 B(  1-C ,  2-C ) :   1.5717 
B(  1-C ,  4-C ) :   0.1005 B(  1-C , 32-H ) :   0.9688 B(  2-C ,  3-C ) :   1.2318 
B(  2-C ,  6-C ) :   1.0547 B(  3-C ,  4-C ) :   1.5806 B(  3-C ,  5-H ) :   0.9901 
B(  4-C , 20-C ) :   1.0547 B(  6-C ,  7-H ) :   0.9264 B(  6-C ,  8-H ) :   0.9317 
B(  6-C ,  9-C ) :   1.0788 B(  9-C , 10-H ) :   0.9582 B(  9-C , 11-H ) :   0.9554 
B(  9-C , 12-C ) :   1.0768 B( 12-C , 13-H ) :   0.9775 B( 12-C , 14-H ) :   0.9734 
B( 12-C , 15-H ) :   0.9724 B( 16-S , 17-C ) :   1.1586 B( 16-S , 20-C ) :   1.1321 
B( 17-C , 18-C ) :   1.5844 B( 17-C , 20-C ) :   0.1049 B( 17-C , 33-H ) :   0.9671 
B( 18-C , 19-C ) :   1.2599 B( 18-C , 21-H ) :   0.9987 B( 19-C , 20-C ) :   1.5823 
B( 19-C , 22-C ) :   1.0293 B( 22-C , 23-H ) :   0.9308 B( 22-C , 24-H ) :   0.9381 
B( 22-C , 25-C ) :   1.0841 B( 25-C , 26-H ) :   0.9508 B( 25-C , 27-H ) :   0.9508 
B( 25-C , 28-C ) :   1.0436 B( 28-C , 29-H ) :   0.9769 B( 28-C , 30-H ) :   0.9781 
B( 28-C , 31-H ) :   0.9795 

-------
TIMINGS
-------

Total SCF time: 0 days 0 hours 0 min 19 sec 

Total time                  ....      19.604 sec
Sum of individual times     ....      18.723 sec  ( 95.5%)

Fock matrix formation       ....      17.067 sec  ( 87.1%)
  XC integration            ....       1.468 sec  (  8.6% of F)
    Basis function eval.    ....       0.138 sec  (  9.4% of XC)
    Density eval.           ....       0.099 sec  (  6.7% of XC)
    XC-Functional eval.     ....       0.120 sec  (  8.2% of XC)
    XC-Potential eval.      ....       0.118 sec  (  8.1% of XC)
Diagonalization             ....       0.135 sec  (  0.7%)
Density matrix formation    ....       0.022 sec  (  0.1%)
Population analysis         ....       0.056 sec  (  0.3%)
Initial guess               ....       0.165 sec  (  0.8%)
Orbital Transformation      ....       0.000 sec  (  0.0%)
Orbital Orthonormalization  ....       0.000 sec  (  0.0%)
DIIS solution               ....       0.152 sec  (  0.8%)
SOSCF solution              ....       0.127 sec  (  0.6%)
Grid generation             ....       0.998 sec  (  5.1%)


-------------------------------------------------------------------------------
                          DFT DISPERSION CORRECTION                            
                                                                               
                              DFTD3 V3.1  Rev 1                                
                              USING zero damping                               
-------------------------------------------------------------------------------
The omegaB97X-D3 functional is recognized. Fit by Chai et al.
Active option DFTDOPT                   ...         3   

molecular C6(AA) [au] = 14164.282522 


            DFT-D V3
 parameters
 s6 scaling factor         :     1.0000 
 rs6 scaling factor        :     1.2810 
 s8 scaling factor         :     1.0000 
 rs8 scaling factor        :     1.0940 
 Damping factor alpha6     :    14.0000 
 Damping factor alpha8     :    16.0000 
 ad hoc parameters k1-k3   :    16.0000     1.3333    -4.0000 

 Edisp/kcal,au: -9.431029471957  -0.015029300522 
 E6   /kcal   :  -4.266823303 
 E8   /kcal   :  -5.164206169 
 % E8         :  54.757608218 

-------------------------   ----------------
Dispersion correction           -0.015029301
-------------------------   ----------------


-------------------------   --------------------
FINAL SINGLE POINT ENERGY     -1339.853743702165
-------------------------   --------------------


                            ***************************************
                            *     ORCA property calculations      *
                            ***************************************

                                    ---------------------
                                    Active property flags
                                    ---------------------
   (+) Dipole Moment


------------------------------------------------------------------------------
                       ORCA ELECTRIC PROPERTIES CALCULATION
------------------------------------------------------------------------------

Dipole Moment Calculation                       ... on
Quadrupole Moment Calculation                   ... off
Polarizability Calculation                      ... off
GBWName                                         ... config_7520.gbw
Electron density file                           ... config_7520.scfp
The origin for moment calculation is the CENTER OF MASS  = (-148.013791, -45.162589 -101.040000)

-------------
DIPOLE MOMENT
-------------
                                X             Y             Z
Electronic contribution:     -2.33641      -7.77705      -2.90052
Nuclear contribution   :      2.63450       7.97177       2.97073
                        -----------------------------------------
Total Dipole Moment    :      0.29809       0.19472       0.07021
                        -----------------------------------------
Magnitude (a.u.)       :      0.36291
Magnitude (Debye)      :      0.92244



--------------------
Rotational spectrum 
--------------------
 
Rotational constants in cm-1:     0.024806     0.007871     0.006688 
Rotational constants in MHz :   743.656304   235.975864   200.489230 

 Dipole components along the rotational axes: 
x,y,z [a.u.] :    -0.035792    -0.210769     0.293254 
x,y,z [Debye]:    -0.090976    -0.535732     0.745393 

 

Timings for individual modules:

Sum of individual times         ...       20.780 sec (=   0.346 min)
GTO integral calculation        ...        0.794 sec (=   0.013 min)   3.8 %
SCF iterations                  ...       19.986 sec (=   0.333 min)  96.2 %
                             ****ORCA TERMINATED NORMALLY****
TOTAL RUN TIME: 0 days 0 hours 0 minutes 21 seconds 481 msec
