
                                 *****************
                                 * O   R   C   A *
                                 *****************

           --- An Ab Initio, DFT and Semiempirical electronic structure package ---

                  #######################################################
                  #                        -***-                        #
                  #          Department of theory and spectroscopy      #
                  #               Directorship: Frank Neese             #
                  #        Max Planck Institute fuer Kohlenforschung    #
                  #                Kaiser Wilhelm Platz 1               #
                  #                 D-45470 Muelheim/Ruhr               #
                  #                      Germany                        #
                  #                                                     #
                  #                  All rights reserved                #
                  #                        -***-                        #
                  #######################################################


                         Program Version 4.2.1 -  RELEASE  -


 With contributions from (in alphabetic order):
   Daniel Aravena         : Magnetic Suceptibility
   Michael Atanasov       : Ab Initio Ligand Field Theory (pilot matlab implementation)
   Alexander A. Auer      : GIAO ZORA, VPT2
   Ute Becker             : Parallelization
   Giovanni Bistoni       : ED, misc. LED, open-shell LED, HFLD
   Martin Brehm           : Molecular dynamics
   Dmytro Bykov           : SCF Hessian
   Vijay G. Chilkuri      : MRCI spin determinant printing, contributions to CSF-ICE
   Dipayan Datta          : RHF DLPNO-CCSD density
   Achintya Kumar Dutta   : EOM-CC, STEOM-CC
   Dmitry Ganyushin       : Spin-Orbit,Spin-Spin,Magnetic field MRCI
   Miquel Garcia          : C-PCM Hessian, Gaussian charge scheme
   Yang Guo               : DLPNO-NEVPT2, CIM, IAO-localization
   Andreas Hansen         : Spin unrestricted coupled pair/coupled cluster methods
   Benjamin Helmich-Paris : CASSCF linear response (MC-RPA)
   Lee Huntington         : MR-EOM, pCC
   Robert Izsak           : Overlap fitted RIJCOSX, COSX-SCS-MP3, EOM
   Christian Kollmar      : KDIIS, OOCD, Brueckner-CCSD(T), CCSD density
   Simone Kossmann        : Meta GGA functionals, TD-DFT gradient, OOMP2, MP2 Hessian
   Martin Krupicka        : AUTO-CI
   Lucas Lang             : DCDCAS
   Dagmar Lenk            : GEPOL surface, SMD
   Dimitrios Liakos       : Extrapolation schemes; Compound Job, initial MDCI parallelization
   Dimitrios Manganas     : Further ROCIS development; embedding schemes
   Dimitrios Pantazis     : SARC Basis sets
   Taras Petrenko         : DFT Hessian,TD-DFT gradient, ASA, ECA, R-Raman, ABS, FL, XAS/XES, NRVS
   Peter Pinski           : DLPNO-MP2, DLPNO-MP2 Gradient
   Christoph Reimann      : Effective Core Potentials
   Marius Retegan         : Local ZFS, SOC
   Christoph Riplinger    : Optimizer, TS searches, QM/MM, DLPNO-CCSD(T), (RO)-DLPNO pert. Triples
   Tobias Risthaus        : Range-separated hybrids, TD-DFT gradient, RPA, STAB
   Michael Roemelt        : Original ROCIS implementation
   Masaaki Saitow         : Open-shell DLPNO-CCSD energy and density
   Barbara Sandhoefer     : DKH picture change effects
   Avijit Sen             : IP-ROCIS
   Kantharuban Sivalingam : CASSCF convergence, NEVPT2, FIC-MRCI
   Bernardo de Souza      : ESD, SOC TD-DFT
   Georgi Stoychev        : AutoAux, RI-MP2 NMR
   Willem Van den Heuvel  : Paramagnetic NMR
   Boris Wezisla          : Elementary symmetry handling
   Frank Wennmohs         : Technical directorship


 We gratefully acknowledge several colleagues who have allowed us to
 interface, adapt or use parts of their codes:
   Stefan Grimme, W. Hujo, H. Kruse,             : VdW corrections, initial TS optimization,
                  C. Bannwarth                     DFT functionals, gCP, sTDA/sTD-DF
   Ed Valeev, F. Pavosevic, A. Kumar             : LibInt (2-el integral package), F12 methods
   Garnet Chan, S. Sharma, J. Yang, R. Olivares  : DMRG
   Ulf Ekstrom                                   : XCFun DFT Library
   Mihaly Kallay                                 : mrcc  (arbitrary order and MRCC methods)
   Andreas Klamt, Michael Diedenhofen            : otool_cosmo (COSMO solvation model)
   Jiri Pittner, Ondrej Demel                    : Mk-CCSD
   Frank Weinhold                                : gennbo (NPA and NBO analysis)
   Christopher J. Cramer and Donald G. Truhlar   : smd solvation model
   Lars Goerigk                                  : TD-DFT with DH, B97 family of functionals
   V. Asgeirsson, H. Jonsson                     : NEB implementation
   FAccTs GmbH                                   : IRC, NEB, NEB-TS, Multilevel, MM, QM/MM, CI optimization
   S Lehtola, MJT Oliveira, MAL Marques          : LibXC Library


 Your calculation uses the libint2 library for the computation of 2-el integrals
 For citations please refer to: http://libint.valeyev.net

 Your ORCA version has been built with support for libXC version: 4.2.3
 For citations please refer to: https://tddft.org/programs/libxc/

 This ORCA versions uses:
   CBLAS   interface :  Fast vector & matrix operations
   LAPACKE interface :  Fast linear algebra routines
   SCALAPACK package :  Parallel linear algebra routines


Your calculation utilizes the atom-pairwise dispersion correction
with the zero-damping scheme (D30)
Cite in your paper:
S.Grimme, J.Antony, S.Ehrlich and H.Krieg, J.Chem.Phys., 132, (2010), 154104 
   

XCFun DFT library Copyright 2009-2010 Ulf Ekstrom and contributors.
See http://admol.org/xcfun for more information. This is free soft-
ware; see the source code for copying conditions. There is ABSOLUTELY
NO WARRANTY; not even for MERCHANTABILITY or FITNESS FOR A PARTICULAR
PURPOSE. For details see the documentation. Scientific users of this 
library should cite U. Ekstrom, L. Visscher, R. Bast, A. J. Thorvald-
sen and K. Ruud; J.Chem.Theor.Comp. 2010, DOI: 10.1021/ct100117s
XCFun Version 0.99 
----- Orbital basis set information -----
Your calculation utilizes the basis: def2-SVP
   F. Weigend and R. Ahlrichs, Phys. Chem. Chem. Phys. 7, 3297 (2005).

================================================================================
                                        WARNINGS
                       Please study these warnings very carefully!
================================================================================


INFO   : the flag for use of LIBINT has been found!

================================================================================
                                       INPUT FILE
================================================================================
NAME = config_746.inp
|  1> ! wB97X-D3 SP def2-SVP
|  2> %pal
|  3> nprocs 24
|  4> end
|  5> 
|  6> * xyz 0 1
|  7> S 	 -35.1938 	 -12.3401 	 16.8062 	 
|  8> C 	 -35.6658 	 -10.6331 	 16.861 	 
|  9> C 	 -35.7091 	 -10.0635 	 15.5984 	 
| 10> C 	 -35.5584 	 -11.1035 	 14.6357 	 
| 11> C 	 -35.2486 	 -12.3551 	 15.0917 	 
| 12> H 	 -35.4285 	 -10.9797 	 13.5195 	 
| 13> C 	 -36.1132 	 -8.57031 	 15.2641 	 
| 14> H 	 -35.3014 	 -8.22039 	 14.648 	 
| 15> H 	 -36.0823 	 -7.94373 	 16.1571 	 
| 16> C 	 -37.4957 	 -8.45513 	 14.5791 	 
| 17> H 	 -37.6548 	 -7.50659 	 13.9929 	 
| 18> H 	 -37.5182 	 -9.19667 	 13.8255 	 
| 19> C 	 -38.6871 	 -8.70153 	 15.4506 	 
| 20> H 	 -38.6843 	 -9.7399 	 15.9037 	 
| 21> H 	 -38.7043 	 -8.00142 	 16.2965 	 
| 22> H 	 -39.5701 	 -8.59861 	 14.8061 	 
| 23> S 	 -35.7659 	 -15.0495 	 14.5431 	 
| 24> C 	 -35.0894 	 -15.7863 	 13.0852 	 
| 25> C 	 -34.1825 	 -14.9143 	 12.5097 	 
| 26> C 	 -33.9786 	 -13.6521 	 13.186 	 
| 27> C 	 -34.8405 	 -13.5094 	 14.3209 	 
| 28> H 	 -33.7648 	 -15.2062 	 11.5409 	 
| 29> C 	 -33.1222 	 -12.5091 	 12.5224 	 
| 30> H 	 -32.636 	 -11.8986 	 13.325 	 
| 31> H 	 -33.8826 	 -11.8771 	 12.0916 	 
| 32> C 	 -32.2406 	 -12.9683 	 11.3258 	 
| 33> H 	 -32.7854 	 -13.4798 	 10.4747 	 
| 34> H 	 -31.6435 	 -13.6704 	 11.7931 	 
| 35> C 	 -31.4605 	 -11.7731 	 10.7893 	 
| 36> H 	 -30.9242 	 -12.0328 	 9.88899 	 
| 37> H 	 -30.8239 	 -11.2965 	 11.5546 	 
| 38> H 	 -32.2104 	 -11.026 	 10.4522 	 
| 39> H 	 -35.7466 	 -10.044 	 17.716 	 
| 40> H 	 -35.2898 	 -16.789 	 12.7013 	 
| 41> *
| 42> 
| 43>                          ****END OF INPUT****
================================================================================

                       ****************************
                       * Single Point Calculation *
                       ****************************

---------------------------------
CARTESIAN COORDINATES (ANGSTROEM)
---------------------------------
  S    -35.193800  -12.340100   16.806200
  C    -35.665800  -10.633100   16.861000
  C    -35.709100  -10.063500   15.598400
  C    -35.558400  -11.103500   14.635700
  C    -35.248600  -12.355100   15.091700
  H    -35.428500  -10.979700   13.519500
  C    -36.113200   -8.570310   15.264100
  H    -35.301400   -8.220390   14.648000
  H    -36.082300   -7.943730   16.157100
  C    -37.495700   -8.455130   14.579100
  H    -37.654800   -7.506590   13.992900
  H    -37.518200   -9.196670   13.825500
  C    -38.687100   -8.701530   15.450600
  H    -38.684300   -9.739900   15.903700
  H    -38.704300   -8.001420   16.296500
  H    -39.570100   -8.598610   14.806100
  S    -35.765900  -15.049500   14.543100
  C    -35.089400  -15.786300   13.085200
  C    -34.182500  -14.914300   12.509700
  C    -33.978600  -13.652100   13.186000
  C    -34.840500  -13.509400   14.320900
  H    -33.764800  -15.206200   11.540900
  C    -33.122200  -12.509100   12.522400
  H    -32.636000  -11.898600   13.325000
  H    -33.882600  -11.877100   12.091600
  C    -32.240600  -12.968300   11.325800
  H    -32.785400  -13.479800   10.474700
  H    -31.643500  -13.670400   11.793100
  C    -31.460500  -11.773100   10.789300
  H    -30.924200  -12.032800    9.888990
  H    -30.823900  -11.296500   11.554600
  H    -32.210400  -11.026000   10.452200
  H    -35.746600  -10.044000   17.716000
  H    -35.289800  -16.789000   12.701300

----------------------------
CARTESIAN COORDINATES (A.U.)
----------------------------
  NO LB      ZA    FRAG     MASS         X           Y           Z
   0 S    16.0000    0    32.060  -66.506644  -23.319409   31.759115
   1 C     6.0000    0    12.011  -67.398594  -20.093647   31.862672
   2 C     6.0000    0    12.011  -67.480419  -19.017259   29.476704
   3 C     6.0000    0    12.011  -67.195638  -20.982574   27.657465
   4 C     6.0000    0    12.011  -66.610201  -23.347755   28.519180
   5 H     1.0000    0     1.008  -66.950162  -20.748626   25.548152
   6 C     6.0000    0    12.011  -68.244058  -16.195539   28.844969
   7 H     1.0000    0     1.008  -66.709978  -15.534286   27.680708
   8 H     1.0000    0     1.008  -68.185665  -15.011474   30.532494
   9 C     6.0000    0    12.011  -70.856604  -15.977880   27.550506
  10 H     1.0000    0     1.008  -71.157260  -14.185399   26.442749
  11 H     1.0000    0     1.008  -70.899123  -17.379188   26.126409
  12 C     6.0000    0    12.011  -73.108024  -16.443509   29.197403
  13 H     1.0000    0     1.008  -73.102733  -18.405744   30.053638
  14 H     1.0000    0     1.008  -73.140527  -15.120492   30.795922
  15 H     1.0000    0     1.008  -74.776652  -16.249018   27.979474
  16 S    16.0000    0    32.060  -67.587756  -28.439433   27.482476
  17 C     6.0000    0    12.011  -66.309356  -29.831784   24.727444
  18 C     6.0000    0    12.011  -64.595564  -28.183942   23.639907
  19 C     6.0000    0    12.011  -64.210248  -25.798730   24.917929
  20 C     6.0000    0    12.011  -65.839003  -25.529066   27.062579
  21 H     1.0000    0     1.008  -63.806225  -28.735554   21.809140
  22 C     6.0000    0    12.011  -62.591887  -23.638773   23.663907
  23 H     1.0000    0     1.008  -61.673102  -22.485095   25.180601
  24 H     1.0000    0     1.008  -64.028835  -22.444466   22.849813
  25 C     6.0000    0    12.011  -60.925904  -24.506535   21.402660
  26 H     1.0000    0     1.008  -61.955427  -25.473130   19.794314
  27 H     1.0000    0     1.008  -59.797549  -25.833312   22.285729
  28 C     6.0000    0    12.011  -59.451729  -22.247935   20.388822
  29 H     1.0000    0     1.008  -58.438269  -22.738697   18.687483
  30 H     1.0000    0     1.008  -58.248729  -21.347291   21.835030
  31 H     1.0000    0     1.008  -60.868835  -20.836120   19.751795
  32 H     1.0000    0     1.008  -67.551284  -18.980409   33.478388
  33 H     1.0000    0     1.008  -66.688057  -31.726612   24.001979

--------------------------------
INTERNAL COORDINATES (ANGSTROEM)
--------------------------------
 S      0   0   0     0.000000000000     0.00000000     0.00000000
 C      1   0   0     1.771901814436     0.00000000     0.00000000
 C      2   1   0     1.385813050162   112.09310902     0.00000000
 C      3   2   1     1.425167281409   108.19173753     8.97216027
 C      4   3   2     1.367631017490   117.81076987   352.27804921
 H      4   3   2     1.130532126921   126.81085503   187.61234246
 C      3   2   1     1.582614822406   126.03133700   178.91153856
 H      7   3   2     1.077516800983   103.58010507   128.81828184
 H      7   3   2     1.091332353777   111.20011943    16.44240633
 C      7   3   2     1.547190254106   113.07380716   251.88280336
 H     10   7   3     1.126353133613   114.79216793   201.66486064
 H     10   7   3     1.057497414465   106.39849549   314.28878883
 C     10   7   3     1.496549087067   116.18537372    72.51713167
 H     13  10   7     1.132925287431   112.44747142   300.10491137
 H     13  10   7     1.098178793321   110.85879198    58.61584676
 H     13  10   7     1.098026309521   106.43661441   181.03668376
 S      5   4   3     2.797919335864   140.71829833   144.25385958
 C     17   5   4     1.768049461978   119.48847780    70.06465014
 C     18  17   5     1.383492630989   109.33931508     9.69126198
 C     19  18  17     1.446411331537   116.61070239     0.36666380
 C     20  19  18     1.432212592460   111.87727669   356.59286095
 H     19  18  17     1.094647130358   116.75738655   186.06676132
 C     20  19  18     1.574876160211   120.86238810   188.31223836
 H     23  20  19     1.119494283148   109.26073427   209.81279806
 H     23  20  19     1.078527143840   102.13454937    98.03953378
 C     23  20  19     1.555613949539   114.71205150   344.60803597
 H     26  23  20     1.132612246093   116.02323074    56.03082909
 H     26  23  20     1.033364461359   100.38003562   299.85154883
 C     26  23  20     1.524759423647   109.22110980   180.49167618
 H     29  26  23     1.079638771117   111.03911279   186.42219496
 H     29  26  23     1.103671694844   112.93066519    57.89128767
 H     29  26  23     1.110920712742   106.77187438   299.31526039
 H      2   1   3     1.041437684166   126.22792774   190.32164305
 H     18  17   5     1.092220975810   127.02753945   186.48306291

---------------------------
INTERNAL COORDINATES (A.U.)
---------------------------
 S      0   0   0     0.000000000000     0.00000000     0.00000000
 C      1   0   0     3.348409165481     0.00000000     0.00000000
 C      2   1   0     2.618807137621   112.09310902     0.00000000
 C      3   2   1     2.693175856889   108.19173753     8.97216027
 C      4   3   2     2.584448075312   117.81076987   352.27804921
 H      4   3   2     2.136396105480   126.81085503   187.61234246
 C      3   2   1     2.990708589832   126.03133700   178.91153856
 H      7   3   2     2.036211658556   103.58010507   128.81828184
 H      7   3   2     2.062319269726   111.20011943    16.44240633
 C      7   3   2     2.923765857332   113.07380716   251.88280336
 H     10   7   3     2.128498952613   114.79216793   201.66486064
 H     10   7   3     1.998380500669   106.39849549   314.28878883
 C     10   7   3     2.828067920526   116.18537372    72.51713167
 H     13  10   7     2.140918523438   112.44747142   300.10491137
 H     13  10   7     2.075257165457   110.85879198    58.61584676
 H     13  10   7     2.074969012835   106.43661441   181.03668376
 S      5   4   3     5.287301289585   140.71829833   144.25385958
 C     17   5   4     3.341129274365   119.48847780    70.06465014
 C     18  17   5     2.614422180867   109.33931508     9.69126198
 C     19  18  17     2.733321293606   116.61070239     0.36666380
 C     20  19  18     2.706489565302   111.87727669   356.59286095
 H     19  18  17     2.068583289659   116.75738655   186.06676132
 C     20  19  18     2.976084637640   120.86238810   188.31223836
 H     23  20  19     2.115537603639   109.26073427   209.81279806
 H     23  20  19     2.038120929858   102.13454937    98.03953378
 C     23  20  19     2.939684334736   114.71205150   344.60803597
 H     26  23  20     2.140326961041   116.02323074    56.03082909
 H     26  23  20     1.952775828496   100.38003562   299.85154883
 C     26  23  20     2.881377730808   109.22110980   180.49167618
 H     29  26  23     2.040221600975   111.03911279   186.42219496
 H     29  26  23     2.085637245016   112.93066519    57.89128767
 H     29  26  23     2.099335903584   106.77187438   299.31526039
 H      2   1   3     1.968032008618   126.22792774   190.32164305
 H     18  17   5     2.063998522006   127.02753945   186.48306291

---------------------
BASIS SET INFORMATION
---------------------
There are 3 groups of distinct atoms

 Group   1 Type S   : 10s7p1d contracted to 4s3p1d pattern {5311/511/1}
 Group   2 Type C   : 7s4p1d contracted to 3s2p1d pattern {511/31/1}
 Group   3 Type H   : 4s1p contracted to 2s1p pattern {31/1}

Atom   0S    basis set group =>   1
Atom   1C    basis set group =>   2
Atom   2C    basis set group =>   2
Atom   3C    basis set group =>   2
Atom   4C    basis set group =>   2
Atom   5H    basis set group =>   3
Atom   6C    basis set group =>   2
Atom   7H    basis set group =>   3
Atom   8H    basis set group =>   3
Atom   9C    basis set group =>   2
Atom  10H    basis set group =>   3
Atom  11H    basis set group =>   3
Atom  12C    basis set group =>   2
Atom  13H    basis set group =>   3
Atom  14H    basis set group =>   3
Atom  15H    basis set group =>   3
Atom  16S    basis set group =>   1
Atom  17C    basis set group =>   2
Atom  18C    basis set group =>   2
Atom  19C    basis set group =>   2
Atom  20C    basis set group =>   2
Atom  21H    basis set group =>   3
Atom  22C    basis set group =>   2
Atom  23H    basis set group =>   3
Atom  24H    basis set group =>   3
Atom  25C    basis set group =>   2
Atom  26H    basis set group =>   3
Atom  27H    basis set group =>   3
Atom  28C    basis set group =>   2
Atom  29H    basis set group =>   3
Atom  30H    basis set group =>   3
Atom  31H    basis set group =>   3
Atom  32H    basis set group =>   3
Atom  33H    basis set group =>   3


           ************************************************************
           *        Program running with 24 parallel MPI-processes    *
           *              working on a common directory               *
           ************************************************************
------------------------------------------------------------------------------
                           ORCA GTO INTEGRAL CALCULATION
------------------------------------------------------------------------------

                         BASIS SET STATISTICS AND STARTUP INFO

 # of primitive gaussian shells          ...  294
 # of primitive gaussian functions       ...  534
 # of contracted shells                  ...  154
 # of contracted basis functions         ...  322
 Highest angular momentum                ...    2
 Maximum contraction depth               ...    5
 Integral package used                   ... LIBINT
 Integral threshhold            Thresh   ...  1.000e-10
 Primitive cut-off              TCut     ...  1.000e-11


------------------------------ INTEGRAL EVALUATION ----------------------------


 * One electron integrals 
 Pre-screening matrix                    ... done
 Shell pair data                         ... done (   0.003 sec)



           ************************************************************
           *        Program running with 24 parallel MPI-processes    *
           *              working on a common directory               *
           ************************************************************
-------------------------------------------------------------------------------
                                 ORCA SCF
-------------------------------------------------------------------------------

------------
SCF SETTINGS
------------
Hamiltonian:
 Density Functional     Method          .... DFT(GTOs)
 Exchange Functional    Exchange        .... WB97X-D3
 Correlation Functional Correlation     .... WB97X-D3
 Gradients option       PostSCFGGA      .... off
 Hybrid DFT is turned on
   Fraction HF Exchange ScalHFX         ....  0.195728
   Scaling of DF-GGA-X  ScalDFX         ....  0.000000
   Scaling of DF-GGA-C  ScalDFC         ....  1.000000
   Scaling of DF-LDA-C  ScalLDAC        ....  1.000000
   Perturbative correction              ....  0.000000
   Density functional embedding theory  .... OFF
 Long-range corrected/Screened/Range-Separated Hybrid DFT is turned on
   Amount of maximum screened exact exchange              ....  0.804272
   Range separation parameter mu (erf(mu*r12)/r12)        ....  0.250000


General Settings:
 Integral files         IntName         .... config_746
 Hartree-Fock type      HFTyp           .... RHF
 Total Charge           Charge          ....    0
 Multiplicity           Mult            ....    1
 Number of Electrons    NEL             ....  134
 Basis Dimension        Dim             ....  322
 Nuclear Repulsion      ENuc            ....   1263.8348020017 Eh

Convergence Acceleration:
 DIIS                   CNVDIIS         .... on
   Start iteration      DIISMaxIt       ....    12
   Startup error        DIISStart       ....  0.200000
   # of expansion vecs  DIISMaxEq       ....     5
   Bias factor          DIISBfac        ....   1.050
   Max. coefficient     DIISMaxC        ....  10.000
 Newton-Raphson         CNVNR           .... off
 SOSCF                  CNVSOSCF        .... on
   Start iteration      SOSCFMaxIt      ....   150
   Startup grad/error   SOSCFStart      ....  0.003300
 Level Shifting         CNVShift        .... on
   Level shift para.    LevelShift      ....    0.2500
   Turn off err/grad.   ShiftErr        ....    0.0010
 Zerner damping         CNVZerner       .... off
 Static damping         CNVDamp         .... on
   Fraction old density DampFac         ....    0.7000
   Max. Damping (<1)    DampMax         ....    0.9800
   Min. Damping (>=0)   DampMin         ....    0.0000
   Turn off err/grad.   DampErr         ....    0.1000
 Fernandez-Rico         CNVRico         .... off

SCF Procedure:
 Maximum # iterations   MaxIter         ....   125
 SCF integral mode      SCFMode         .... Direct
   Integral package                     .... LIBINT
 Reset frequency        DirectResetFreq ....    20
 Integral Threshold     Thresh          ....  1.000e-10 Eh
 Primitive CutOff       TCut            ....  1.000e-11 Eh

Convergence Tolerance:
 Convergence Check Mode ConvCheckMode   .... Total+1el-Energy
 Convergence forced     ConvForced      .... 0
 Energy Change          TolE            ....  1.000e-06 Eh
 1-El. energy change                    ....  1.000e-03 Eh
 Orbital Gradient       TolG            ....  5.000e-05
 Orbital Rotation angle TolX            ....  5.000e-05
 DIIS Error             TolErr          ....  1.000e-06


Diagonalization of the overlap matrix:
Smallest eigenvalue                        ... 7.509e-04
Time for diagonalization                   ...    0.014 sec
Threshold for overlap eigenvalues          ... 1.000e-08
Number of eigenvalues below threshold      ... 0
Time for construction of square roots      ...    0.027 sec
Total time needed                          ...    0.042 sec

-------------------
DFT GRID GENERATION
-------------------

General Integration Accuracy     IntAcc      ...  4.340
Radial Grid Type                 RadialGrid  ... Gauss-Chebyshev
Angular Grid (max. acc.)         AngularGrid ... Lebedev-110
Angular grid pruning method      GridPruning ... 3 (G Style)
Weight generation scheme         WeightScheme... Becke
Basis function cutoff            BFCut       ...    1.0000e-10
Integration weight cutoff        WCut        ...    1.0000e-14
Grids for H and He will be reduced by one unit

# of grid points (after initial pruning)     ...  41088 (   0.0 sec)
# of grid points (after weights+screening)   ...  37052 (   0.0 sec)
nearest neighbour list constructed           ...    0.0 sec
Grid point re-assignment to atoms done       ...    0.0 sec
Grid point division into batches done        ...    0.0 sec
Reduced shell lists constructed in    0.1 sec

Total number of grid points                  ...    37052
Total number of batches                      ...      595
Average number of points per batch           ...       62
Average number of grid points per atom       ...     1090
Average number of shells per batch           ...    68.15 (44.26%)
Average number of basis functions per batch  ...   134.92 (41.90%)
Average number of large shells per batch     ...    43.27 (63.49%)
Average number of large basis fcns per batch ...    89.73 (66.51%)
Maximum spatial batch extension              ...  21.48, 16.19, 14.69 au
Average spatial batch extension              ...   0.21,  0.17,  0.17 au

Time for grid setup =    0.150 sec

------------------------------
INITIAL GUESS: MODEL POTENTIAL
------------------------------
Loading Hartree-Fock densities                     ... done
Calculating cut-offs                               ... done
Setting up the integral package                    ... done
Initializing the effective Hamiltonian             ... done
Starting the Coulomb interaction                   ... done (   0.0 sec)
Reading the grid                                   ... done
Mapping shells                                     ... done
Starting the XC term evaluation                    ... done (   0.0 sec)
  promolecular density results
     # of electrons  =    133.988853401
     EX              =   -126.657757162
     EC              =     -4.609766203
     EX+EC           =   -131.267523365
Transforming the Hamiltonian                       ... done (   0.0 sec)
Diagonalizing the Hamiltonian                      ... done (   0.0 sec)
Back transforming the eigenvectors                 ... done (   0.0 sec)
Now organizing SCF variables                       ... done
                      ------------------
                      INITIAL GUESS DONE (   0.3 sec)
                      ------------------
--------------
SCF ITERATIONS
--------------
ITER       Energy         Delta-E        Max-DP      RMS-DP      [F,P]     Damp
               ***  Starting incremental Fock matrix formation  ***
  0  -1339.4422771252   0.000000000000 0.06451780  0.00152897  0.1595829 0.7000
  1  -1339.6189876175  -0.176710492330 0.04323559  0.00111500  0.0955523 0.7000
                               ***Turning on DIIS***
  2  -1339.7049710379  -0.085983420397 0.08969479  0.00208995  0.0487331 0.0000
  3  -1339.8351653604  -0.130194322479 0.04129252  0.00094050  0.0430689 0.0000
  4  -1339.8628078693  -0.027642508923 0.00723695  0.00018814  0.0070968 0.0000
                      *** Initiating the SOSCF procedure ***
                           *** Shutting down DIIS ***
                      *** Re-Reading the Fockian *** 
                      *** Removing any level shift *** 
ITER      Energy       Delta-E        Grad      Rot      Max-DP    RMS-DP
  5  -1339.86366236  -0.0008544867  0.001470  0.001470  0.003159  0.000094
               *** Restarting incremental Fock matrix formation ***
  6  -1339.86384539  -0.0001830336  0.001240  0.003501  0.002700  0.000062
  7  -1339.86390873  -0.0000633418  0.000729  0.004163  0.003690  0.000066
  8  -1339.86392560  -0.0000168679  0.000567  0.001132  0.000819  0.000022
  9  -1339.86393181  -0.0000062086  0.000143  0.000454  0.000413  0.000009
 10  -1339.86393233  -0.0000005205  0.000077  0.000250  0.000180  0.000004
                 **** Energy Check signals convergence ****
              ***Rediagonalizing the Fockian in SOSCF/NRSCF***

               *****************************************************
               *                     SUCCESS                       *
               *           SCF CONVERGED AFTER  11 CYCLES          *
               *****************************************************

Setting up the final grid:

General Integration Accuracy     IntAcc      ...  4.670
Radial Grid Type                 RadialGrid  ... Gauss-Chebyshev
Angular Grid (max. acc.)         AngularGrid ... Lebedev-302
Angular grid pruning method      GridPruning ... 3 (G Style)
Weight generation scheme         WeightScheme... Becke
Basis function cutoff            BFCut       ...    1.0000e-10
Integration weight cutoff        WCut        ...    1.0000e-14
Grids for H and He will be reduced by one unit

# of grid points (after initial pruning)     ... 161752 (   0.0 sec)
# of grid points (after weights+screening)   ... 143105 (   0.1 sec)
nearest neighbour list constructed           ...    0.0 sec
Grid point re-assignment to atoms done       ...    0.0 sec
Grid point division into batches done        ...    0.5 sec
Reduced shell lists constructed in    0.5 sec

Total number of grid points                  ...   143105
Total number of batches                      ...     2255
Average number of points per batch           ...       63
Average number of grid points per atom       ...     4209
Average number of shells per batch           ...    61.89 (40.19%)
Average number of basis functions per batch  ...   122.29 (37.98%)
Average number of large shells per batch     ...    37.88 (61.21%)
Average number of large basis fcns per batch ...    78.35 (64.06%)
Maximum spatial batch extension              ...  16.85, 13.37, 13.50 au
Average spatial batch extension              ...   0.13,  0.11,  0.11 au

Final grid set up in    0.8 sec
Final integration                            ... done (   0.2 sec)
Change in XC energy                          ...     0.007163471
Integrated number of electrons               ...   133.999763355
Previous integrated no of electrons          ...   133.997425978

----------------
TOTAL SCF ENERGY
----------------

Total Energy       :        -1339.85676912 Eh          -36459.35625 eV

Components:
Nuclear Repulsion  :         1263.83480200 Eh           34390.69335 eV
Electronic Energy  :        -2603.69157113 Eh          -70850.04960 eV
One Electron Energy:        -4344.31433150 Eh         -118214.80288 eV
Two Electron Energy:         1740.62276037 Eh           47364.75329 eV

Virial components:
Potential Energy   :        -2670.95181413 Eh          -72680.29386 eV
Kinetic Energy     :         1331.09504500 Eh           36220.93761 eV
Virial Ratio       :            2.00658234


DFT components:
N(Alpha)           :       66.999881677378 electrons
N(Beta)            :       66.999881677378 electrons
N(Total)           :      133.999763354756 electrons
E(XC)              :      -94.172376439119 Eh       
DFET-embed. en.    :        0.000000000000 Eh       

---------------
SCF CONVERGENCE
---------------

  Last Energy change         ...   -2.6726e-07  Tolerance :   1.0000e-06
  Last MAX-Density change    ...    2.8574e-05  Tolerance :   1.0000e-05
  Last RMS-Density change    ...    6.3986e-07  Tolerance :   1.0000e-06
  Last Orbital Gradient      ...    6.7031e-06  Tolerance :   5.0000e-05
  Last Orbital Rotation      ...    2.0857e-05  Tolerance :   5.0000e-05

             **** THE GBW FILE WAS UPDATED (config_746.gbw) ****
             **** DENSITY FILE WAS UPDATED (config_746.scfp) ****
             **** ENERGY FILE WAS UPDATED (config_746.en.tmp) ****
             **** THE GBW FILE WAS UPDATED (config_746.gbw) ****
             **** DENSITY FILE WAS UPDATED (config_746.scfp) ****
----------------
ORBITAL ENERGIES
----------------

  NO   OCC          E(Eh)            E(eV) 
   0   2.0000     -88.965625     -2420.8777 
   1   2.0000     -88.964477     -2420.8465 
   2   2.0000     -10.334944      -281.2281 
   3   2.0000     -10.325925      -280.9827 
   4   2.0000     -10.322889      -280.9001 
   5   2.0000     -10.316913      -280.7375 
   6   2.0000     -10.313008      -280.6312 
   7   2.0000     -10.307411      -280.4789 
   8   2.0000     -10.301797      -280.3261 
   9   2.0000     -10.300923      -280.3024 
  10   2.0000     -10.297372      -280.2057 
  11   2.0000     -10.295895      -280.1656 
  12   2.0000     -10.290400      -280.0160 
  13   2.0000     -10.285336      -279.8782 
  14   2.0000     -10.283493      -279.8281 
  15   2.0000     -10.278466      -279.6913 
  16   2.0000      -8.080738      -219.8881 
  17   2.0000      -8.078014      -219.8139 
  18   2.0000      -6.039197      -164.3349 
  19   2.0000      -6.036669      -164.2661 
  20   2.0000      -6.035228      -164.2269 
  21   2.0000      -6.032554      -164.1541 
  22   2.0000      -6.031481      -164.1249 
  23   2.0000      -6.028803      -164.0521 
  24   2.0000      -1.005130       -27.3510 
  25   2.0000      -0.975911       -26.5559 
  26   2.0000      -0.910738       -24.7824 
  27   2.0000      -0.908517       -24.7220 
  28   2.0000      -0.870552       -23.6889 
  29   2.0000      -0.848322       -23.0840 
  30   2.0000      -0.840190       -22.8627 
  31   2.0000      -0.812112       -22.0987 
  32   2.0000      -0.784787       -21.3551 
  33   2.0000      -0.771770       -21.0009 
  34   2.0000      -0.709972       -19.3193 
  35   2.0000      -0.703044       -19.1308 
  36   2.0000      -0.691335       -18.8122 
  37   2.0000      -0.647673       -17.6241 
  38   2.0000      -0.643504       -17.5106 
  39   2.0000      -0.615369       -16.7450 
  40   2.0000      -0.592326       -16.1180 
  41   2.0000      -0.574468       -15.6321 
  42   2.0000      -0.566665       -15.4197 
  43   2.0000      -0.554361       -15.0849 
  44   2.0000      -0.537500       -14.6261 
  45   2.0000      -0.530949       -14.4478 
  46   2.0000      -0.515312       -14.0223 
  47   2.0000      -0.511754       -13.9255 
  48   2.0000      -0.506516       -13.7830 
  49   2.0000      -0.491531       -13.3752 
  50   2.0000      -0.483477       -13.1561 
  51   2.0000      -0.478732       -13.0270 
  52   2.0000      -0.472442       -12.8558 
  53   2.0000      -0.465544       -12.6681 
  54   2.0000      -0.456173       -12.4131 
  55   2.0000      -0.449637       -12.2352 
  56   2.0000      -0.444840       -12.1047 
  57   2.0000      -0.438586       -11.9345 
  58   2.0000      -0.436953       -11.8901 
  59   2.0000      -0.426369       -11.6021 
  60   2.0000      -0.421417       -11.4674 
  61   2.0000      -0.411942       -11.2095 
  62   2.0000      -0.410272       -11.1641 
  63   2.0000      -0.343913        -9.3584 
  64   2.0000      -0.334056        -9.0901 
  65   2.0000      -0.327706        -8.9173 
  66   2.0000      -0.294240        -8.0067 
  67   0.0000       0.026755         0.7280 
  68   0.0000       0.066201         1.8014 
  69   0.0000       0.113380         3.0852 
  70   0.0000       0.119649         3.2558 
  71   0.0000       0.132384         3.6024 
  72   0.0000       0.140097         3.8122 
  73   0.0000       0.143664         3.9093 
  74   0.0000       0.149684         4.0731 
  75   0.0000       0.158840         4.3223 
  76   0.0000       0.169288         4.6066 
  77   0.0000       0.176503         4.8029 
  78   0.0000       0.178471         4.8564 
  79   0.0000       0.190696         5.1891 
  80   0.0000       0.196403         5.3444 
  81   0.0000       0.208541         5.6747 
  82   0.0000       0.212433         5.7806 
  83   0.0000       0.216984         5.9044 
  84   0.0000       0.217379         5.9152 
  85   0.0000       0.229553         6.2465 
  86   0.0000       0.236447         6.4341 
  87   0.0000       0.237118         6.4523 
  88   0.0000       0.240416         6.5421 
  89   0.0000       0.245289         6.6747 
  90   0.0000       0.254194         6.9170 
  91   0.0000       0.265374         7.2212 
  92   0.0000       0.278774         7.5858 
  93   0.0000       0.290191         7.8965 
  94   0.0000       0.301895         8.2150 
  95   0.0000       0.308045         8.3823 
  96   0.0000       0.319049         8.6818 
  97   0.0000       0.334930         9.1139 
  98   0.0000       0.343808         9.3555 
  99   0.0000       0.376659        10.2494 
 100   0.0000       0.382265        10.4019 
 101   0.0000       0.388809        10.5800 
 102   0.0000       0.414182        11.2705 
 103   0.0000       0.420316        11.4374 
 104   0.0000       0.427803        11.6411 
 105   0.0000       0.440473        11.9859 
 106   0.0000       0.465951        12.6792 
 107   0.0000       0.478846        13.0301 
 108   0.0000       0.490140        13.3374 
 109   0.0000       0.493232        13.4215 
 110   0.0000       0.502143        13.6640 
 111   0.0000       0.510058        13.8794 
 112   0.0000       0.516319        14.0498 
 113   0.0000       0.521673        14.1954 
 114   0.0000       0.528281        14.3752 
 115   0.0000       0.535012        14.5584 
 116   0.0000       0.535906        14.5827 
 117   0.0000       0.541700        14.7404 
 118   0.0000       0.556535        15.1441 
 119   0.0000       0.570018        15.5110 
 120   0.0000       0.571412        15.5489 
 121   0.0000       0.583770        15.8852 
 122   0.0000       0.597709        16.2645 
 123   0.0000       0.609163        16.5762 
 124   0.0000       0.615582        16.7508 
 125   0.0000       0.625770        17.0281 
 126   0.0000       0.638108        17.3638 
 127   0.0000       0.643524        17.5112 
 128   0.0000       0.652783        17.7631 
 129   0.0000       0.662540        18.0286 
 130   0.0000       0.671087        18.2612 
 131   0.0000       0.683927        18.6106 
 132   0.0000       0.689556        18.7638 
 133   0.0000       0.691891        18.8273 
 134   0.0000       0.702256        19.1093 
 135   0.0000       0.713670        19.4200 
 136   0.0000       0.717063        19.5123 
 137   0.0000       0.724563        19.7164 
 138   0.0000       0.732394        19.9294 
 139   0.0000       0.734023        19.9738 
 140   0.0000       0.734858        19.9965 
 141   0.0000       0.743960        20.2442 
 142   0.0000       0.749181        20.3863 
 143   0.0000       0.752110        20.4659 
 144   0.0000       0.760121        20.6840 
 145   0.0000       0.766176        20.8487 
 146   0.0000       0.769657        20.9434 
 147   0.0000       0.773748        21.0548 
 148   0.0000       0.776531        21.1305 
 149   0.0000       0.779704        21.2168 
 150   0.0000       0.780476        21.2378 
 151   0.0000       0.788549        21.4575 
 152   0.0000       0.794408        21.6169 
 153   0.0000       0.798452        21.7270 
 154   0.0000       0.799910        21.7666 
 155   0.0000       0.806402        21.9433 
 156   0.0000       0.808329        21.9958 
 157   0.0000       0.811431        22.0802 
 158   0.0000       0.815421        22.1887 
 159   0.0000       0.824306        22.4305 
 160   0.0000       0.828052        22.5324 
 161   0.0000       0.830673        22.6038 
 162   0.0000       0.831071        22.6146 
 163   0.0000       0.847348        23.0575 
 164   0.0000       0.854987        23.2654 
 165   0.0000       0.859747        23.3949 
 166   0.0000       0.874328        23.7917 
 167   0.0000       0.881786        23.9946 
 168   0.0000       0.886468        24.1220 
 169   0.0000       0.899139        24.4668 
 170   0.0000       0.908212        24.7137 
 171   0.0000       0.915165        24.9029 
 172   0.0000       0.917931        24.9782 
 173   0.0000       0.923253        25.1230 
 174   0.0000       0.946315        25.7505 
 175   0.0000       0.957775        26.0624 
 176   0.0000       0.979572        26.6555 
 177   0.0000       0.984918        26.8010 
 178   0.0000       1.014840        27.6152 
 179   0.0000       1.037075        28.2202 
 180   0.0000       1.063217        28.9316 
 181   0.0000       1.069475        29.1019 
 182   0.0000       1.093874        29.7658 
 183   0.0000       1.099069        29.9072 
 184   0.0000       1.122887        30.5553 
 185   0.0000       1.127750        30.6876 
 186   0.0000       1.145590        31.1731 
 187   0.0000       1.170132        31.8409 
 188   0.0000       1.186731        32.2926 
 189   0.0000       1.197683        32.5906 
 190   0.0000       1.212661        32.9982 
 191   0.0000       1.229295        33.4508 
 192   0.0000       1.241824        33.7918 
 193   0.0000       1.258107        34.2348 
 194   0.0000       1.271568        34.6011 
 195   0.0000       1.281170        34.8624 
 196   0.0000       1.300887        35.3989 
 197   0.0000       1.306238        35.5445 
 198   0.0000       1.323771        36.0216 
 199   0.0000       1.350494        36.7488 
 200   0.0000       1.386915        37.7399 
 201   0.0000       1.398160        38.0459 
 202   0.0000       1.418996        38.6128 
 203   0.0000       1.450070        39.4584 
 204   0.0000       1.468676        39.9647 
 205   0.0000       1.472459        40.0677 
 206   0.0000       1.483079        40.3566 
 207   0.0000       1.504052        40.9273 
 208   0.0000       1.520077        41.3634 
 209   0.0000       1.560696        42.4687 
 210   0.0000       1.574539        42.8454 
 211   0.0000       1.606072        43.7035 
 212   0.0000       1.621816        44.1319 
 213   0.0000       1.624158        44.1956 
 214   0.0000       1.629055        44.3288 
 215   0.0000       1.630102        44.3573 
 216   0.0000       1.665151        45.3110 
 217   0.0000       1.692989        46.0686 
 218   0.0000       1.734580        47.2003 
 219   0.0000       1.767133        48.0861 
 220   0.0000       1.774083        48.2753 
 221   0.0000       1.803329        49.0711 
 222   0.0000       1.818011        49.4706 
 223   0.0000       1.820989        49.5516 
 224   0.0000       1.828597        49.7587 
 225   0.0000       1.836536        49.9747 
 226   0.0000       1.846082        50.2344 
 227   0.0000       1.848327        50.2955 
 228   0.0000       1.859482        50.5991 
 229   0.0000       1.863281        50.7025 
 230   0.0000       1.866015        50.7768 
 231   0.0000       1.871039        50.9136 
 232   0.0000       1.880922        51.1825 
 233   0.0000       1.885431        51.3052 
 234   0.0000       1.893086        51.5135 
 235   0.0000       1.894783        51.5597 
 236   0.0000       1.906095        51.8675 
 237   0.0000       1.910796        51.9954 
 238   0.0000       1.914251        52.0894 
 239   0.0000       1.916555        52.1521 
 240   0.0000       1.939280        52.7705 
 241   0.0000       1.943774        52.8928 
 242   0.0000       1.953388        53.1544 
 243   0.0000       1.968260        53.5591 
 244   0.0000       1.973454        53.7004 
 245   0.0000       1.978414        53.8354 
 246   0.0000       1.989787        54.1449 
 247   0.0000       1.993947        54.2581 
 248   0.0000       2.017211        54.8911 
 249   0.0000       2.023833        55.0713 
 250   0.0000       2.038180        55.4617 
 251   0.0000       2.047755        55.7222 
 252   0.0000       2.056843        55.9695 
 253   0.0000       2.066500        56.2323 
 254   0.0000       2.079039        56.5735 
 255   0.0000       2.086485        56.7761 
 256   0.0000       2.108330        57.3706 
 257   0.0000       2.110554        57.4311 
 258   0.0000       2.125559        57.8394 
 259   0.0000       2.135970        58.1227 
 260   0.0000       2.153576        58.6018 
 261   0.0000       2.156961        58.6939 
 262   0.0000       2.175850        59.2079 
 263   0.0000       2.197128        59.7869 
 264   0.0000       2.216376        60.3107 
 265   0.0000       2.238638        60.9164 
 266   0.0000       2.262372        61.5623 
 267   0.0000       2.268595        61.7316 
 268   0.0000       2.278662        62.0056 
 269   0.0000       2.290527        62.3284 
 270   0.0000       2.320219        63.1364 
 271   0.0000       2.336426        63.5774 
 272   0.0000       2.341584        63.7177 
 273   0.0000       2.388977        65.0074 
 274   0.0000       2.409204        65.5578 
 275   0.0000       2.413813        65.6832 
 276   0.0000       2.416932        65.7681 
 277   0.0000       2.431478        66.1639 
 278   0.0000       2.450398        66.6787 
 279   0.0000       2.460097        66.9426 
 280   0.0000       2.493241        67.8445 
 281   0.0000       2.506155        68.1959 
 282   0.0000       2.511909        68.3525 
 283   0.0000       2.520695        68.5916 
 284   0.0000       2.521406        68.6109 
 285   0.0000       2.542114        69.1744 
 286   0.0000       2.565316        69.8058 
 287   0.0000       2.586753        70.3891 
 288   0.0000       2.589900        70.4748 
 289   0.0000       2.624707        71.4219 
 290   0.0000       2.628947        71.5373 
 291   0.0000       2.662929        72.4620 
 292   0.0000       2.686639        73.1072 
 293   0.0000       2.691565        73.2412 
 294   0.0000       2.698350        73.4258 
 295   0.0000       2.732153        74.3457 
 296   0.0000       2.741235        74.5928 
 297   0.0000       2.745770        74.7162 
 298   0.0000       2.768352        75.3307 
 299   0.0000       2.793208        76.0071 
 300   0.0000       2.809776        76.4579 
 301   0.0000       2.861140        77.8556 
 302   0.0000       2.894757        78.7703 
 303   0.0000       2.937986        79.9467 
 304   0.0000       2.944185        80.1154 
 305   0.0000       2.955777        80.4308 
 306   0.0000       2.994119        81.4741 
 307   0.0000       3.004336        81.7521 
 308   0.0000       3.015503        82.0560 
 309   0.0000       3.021553        82.2206 
 310   0.0000       3.041658        82.7677 
 311   0.0000       3.055586        83.1467 
 312   0.0000       3.075356        83.6847 
 313   0.0000       3.110338        84.6366 
 314   0.0000       3.122671        84.9722 
 315   0.0000       3.136926        85.3601 
 316   0.0000       3.147957        85.6603 
 317   0.0000       3.210285        87.3563 
 318   0.0000       3.238625        88.1275 
 319   0.0000       3.249063        88.4115 
 320   0.0000       3.333021        90.6961 
 321   0.0000       3.375365        91.8484 

                    ********************************
                    * MULLIKEN POPULATION ANALYSIS *
                    ********************************

-----------------------
MULLIKEN ATOMIC CHARGES
-----------------------
   0 S :    0.114900
   1 C :   -0.090478
   2 C :   -0.117349
   3 C :   -0.003381
   4 C :   -0.149707
   5 H :    0.024697
   6 C :    0.098528
   7 H :    0.030326
   8 H :    0.018075
   9 C :   -0.072749
  10 H :    0.035037
  11 H :    0.016101
  12 C :   -0.063335
  13 H :    0.048891
  14 H :    0.027250
  15 H :    0.039722
  16 S :    0.090289
  17 C :   -0.087148
  18 C :   -0.068780
  19 C :   -0.019804
  20 C :   -0.153298
  21 H :    0.027688
  22 C :    0.009611
  23 H :    0.056348
  24 H :    0.037331
  25 C :   -0.085032
  26 H :    0.049271
  27 H :    0.022708
  28 C :   -0.024817
  29 H :    0.033804
  30 H :    0.041715
  31 H :    0.024906
  32 H :    0.022886
  33 H :    0.065797
Sum of atomic charges:    0.0000000

--------------------------------
MULLIKEN REDUCED ORBITAL CHARGES
--------------------------------
  0 S s       :     5.846592  s :     5.846592
      pz      :     3.120235  p :     9.929847
      px      :     3.628065
      py      :     3.181547
      dz2     :     0.039978  d :     0.108661
      dxz     :     0.017264
      dyz     :     0.014949
      dx2y2   :     0.019250
      dxy     :     0.017221
  1 C s       :     3.168356  s :     3.168356
      pz      :     0.974470  p :     2.888227
      px      :     1.087635
      py      :     0.826123
      dz2     :     0.009335  d :     0.033895
      dxz     :     0.004708
      dyz     :     0.009420
      dx2y2   :     0.005110
      dxy     :     0.005321
  2 C s       :     3.090873  s :     3.090873
      pz      :     0.983046  p :     2.983952
      px      :     1.000298
      py      :     1.000608
      dz2     :     0.008579  d :     0.042525
      dxz     :     0.007441
      dyz     :     0.014641
      dx2y2   :     0.005345
      dxy     :     0.006519
  3 C s       :     3.190159  s :     3.190159
      pz      :     0.861069  p :     2.777333
      px      :     1.010181
      py      :     0.906082
      dz2     :     0.009133  d :     0.035890
      dxz     :     0.003552
      dyz     :     0.009896
      dx2y2   :     0.005898
      dxy     :     0.007410
  4 C s       :     3.053893  s :     3.053893
      pz      :     0.933908  p :     3.048377
      px      :     1.096757
      py      :     1.017712
      dz2     :     0.014981  d :     0.047438
      dxz     :     0.007053
      dyz     :     0.010709
      dx2y2   :     0.006377
      dxy     :     0.008317
  5 H s       :     0.952903  s :     0.952903
      pz      :     0.014316  p :     0.022400
      px      :     0.004945
      py      :     0.003139
  6 C s       :     2.975688  s :     2.975688
      pz      :     0.997495  p :     2.892403
      px      :     0.969311
      py      :     0.925598
      dz2     :     0.004287  d :     0.033381
      dxz     :     0.007577
      dyz     :     0.007195
      dx2y2   :     0.008189
      dxy     :     0.006133
  7 H s       :     0.946081  s :     0.946081
      pz      :     0.008096  p :     0.023594
      px      :     0.009751
      py      :     0.005747
  8 H s       :     0.959284  s :     0.959284
      pz      :     0.011166  p :     0.022641
      px      :     0.004286
      py      :     0.007189
  9 C s       :     3.032376  s :     3.032376
      pz      :     1.017687  p :     3.002692
      px      :     0.961040
      py      :     1.023966
      dz2     :     0.004132  d :     0.037681
      dxz     :     0.008612
      dyz     :     0.010729
      dx2y2   :     0.010021
      dxy     :     0.004186
 10 H s       :     0.943884  s :     0.943884
      pz      :     0.006629  p :     0.021079
      px      :     0.003114
      py      :     0.011337
 11 H s       :     0.958703  s :     0.958703
      pz      :     0.009999  p :     0.025196
      px      :     0.004489
      py      :     0.010708
 12 C s       :     3.031732  s :     3.031732
      pz      :     0.988276  p :     3.002744
      px      :     0.985951
      py      :     1.028517
      dz2     :     0.002997  d :     0.028859
      dxz     :     0.008180
      dyz     :     0.008130
      dx2y2   :     0.007428
      dxy     :     0.002125
 13 H s       :     0.929312  s :     0.929312
      pz      :     0.005586  p :     0.021797
      px      :     0.003762
      py      :     0.012449
 14 H s       :     0.949386  s :     0.949386
      pz      :     0.010332  p :     0.023364
      px      :     0.004146
      py      :     0.008886
 15 H s       :     0.937147  s :     0.937147
      pz      :     0.007696  p :     0.023131
      px      :     0.010661
      py      :     0.004775
 16 S s       :     5.850606  s :     5.850606
      pz      :     3.350174  p :     9.960541
      px      :     3.517971
      py      :     3.092396
      dz2     :     0.023882  d :     0.098564
      dxz     :     0.015748
      dyz     :     0.020616
      dx2y2   :     0.012122
      dxy     :     0.026196
 17 C s       :     3.159073  s :     3.159073
      pz      :     0.910569  p :     2.894347
      px      :     1.033877
      py      :     0.949900
      dz2     :     0.008304  d :     0.033728
      dxz     :     0.005377
      dyz     :     0.007349
      dx2y2   :     0.007036
      dxy     :     0.005663
 18 C s       :     3.183788  s :     3.183788
      pz      :     0.917662  p :     2.851373
      px      :     0.973366
      py      :     0.960345
      dz2     :     0.006355  d :     0.033618
      dxz     :     0.004716
      dyz     :     0.008154
      dx2y2   :     0.007489
      dxy     :     0.006904
 19 C s       :     3.085581  s :     3.085581
      pz      :     0.962967  p :     2.894847
      px      :     0.975999
      py      :     0.955881
      dz2     :     0.008255  d :     0.039376
      dxz     :     0.007085
      dyz     :     0.008749
      dx2y2   :     0.008314
      dxy     :     0.006972
 20 C s       :     3.099408  s :     3.099408
      pz      :     1.076999  p :     3.013445
      px      :     1.018053
      py      :     0.918393
      dz2     :     0.008094  d :     0.040446
      dxz     :     0.005411
      dyz     :     0.008139
      dx2y2   :     0.008091
      dxy     :     0.010710
 21 H s       :     0.948605  s :     0.948605
      pz      :     0.013198  p :     0.023707
      px      :     0.006214
      py      :     0.004295
 22 C s       :     2.996996  s :     2.996996
      pz      :     0.960120  p :     2.959720
      px      :     0.989951
      py      :     1.009648
      dz2     :     0.005106  d :     0.033674
      dxz     :     0.007660
      dyz     :     0.008301
      dx2y2   :     0.002845
      dxy     :     0.009762
 23 H s       :     0.922291  s :     0.922291
      pz      :     0.009041  p :     0.021361
      px      :     0.005615
      py      :     0.006706
 24 H s       :     0.938488  s :     0.938488
      pz      :     0.006518  p :     0.024181
      px      :     0.009666
      py      :     0.007997
 25 C s       :     3.050759  s :     3.050759
      pz      :     0.963362  p :     2.997958
      px      :     1.014709
      py      :     1.019886
      dz2     :     0.005493  d :     0.036315
      dxz     :     0.008835
      dyz     :     0.008624
      dx2y2   :     0.003800
      dxy     :     0.009564
 26 H s       :     0.930056  s :     0.930056
      pz      :     0.009156  p :     0.020673
      px      :     0.005879
      py      :     0.005638
 27 H s       :     0.951373  s :     0.951373
      pz      :     0.007822  p :     0.025919
      px      :     0.008669
      py      :     0.009427
 28 C s       :     3.005037  s :     3.005037
      pz      :     1.001296  p :     2.991471
      px      :     1.007745
      py      :     0.982430
      dz2     :     0.004079  d :     0.028309
      dxz     :     0.007640
      dyz     :     0.005432
      dx2y2   :     0.002694
      dxy     :     0.008464
 29 H s       :     0.942269  s :     0.942269
      pz      :     0.011362  p :     0.023927
      px      :     0.007336
      py      :     0.005228
 30 H s       :     0.935488  s :     0.935488
      pz      :     0.008867  p :     0.022797
      px      :     0.007842
      py      :     0.006088
 31 H s       :     0.952092  s :     0.952092
      pz      :     0.005765  p :     0.023001
      px      :     0.008753
      py      :     0.008483
 32 H s       :     0.951292  s :     0.951292
      pz      :     0.012310  p :     0.025822
      px      :     0.006121
      py      :     0.007390
 33 H s       :     0.910555  s :     0.910555
      pz      :     0.004836  p :     0.023648
      px      :     0.004749
      py      :     0.014064


                     *******************************
                     * LOEWDIN POPULATION ANALYSIS *
                     *******************************

----------------------
LOEWDIN ATOMIC CHARGES
----------------------
   0 S :    0.413674
   1 C :   -0.179453
   2 C :   -0.060713
   3 C :   -0.074745
   4 C :   -0.213302
   5 H :    0.036655
   6 C :   -0.020606
   7 H :    0.031414
   8 H :    0.026708
   9 C :   -0.048216
  10 H :    0.030552
  11 H :    0.018259
  12 C :   -0.067499
  13 H :    0.034167
  14 H :    0.020936
  15 H :    0.030354
  16 S :    0.376881
  17 C :   -0.180455
  18 C :   -0.083751
  19 C :   -0.045419
  20 C :   -0.191260
  21 H :    0.032443
  22 C :   -0.031964
  23 H :    0.041449
  24 H :    0.027100
  25 C :   -0.041787
  26 H :    0.034040
  27 H :    0.013756
  28 C :   -0.063091
  29 H :    0.024664
  30 H :    0.029758
  31 H :    0.027886
  32 H :    0.014833
  33 H :    0.036732

-------------------------------
LOEWDIN REDUCED ORBITAL CHARGES
-------------------------------
  0 S s       :     5.501048  s :     5.501048
      pz      :     3.163230  p :     9.950479
      px      :     3.591538
      py      :     3.195710
      dz2     :     0.053312  d :     0.134800
      dxz     :     0.020126
      dyz     :     0.017662
      dx2y2   :     0.023545
      dxy     :     0.020154
  1 C s       :     2.924360  s :     2.924360
      pz      :     1.088475  p :     3.174218
      px      :     1.093329
      py      :     0.992414
      dz2     :     0.024891  d :     0.080874
      dxz     :     0.008745
      dyz     :     0.025582
      dx2y2   :     0.010806
      dxy     :     0.010851
  2 C s       :     2.875593  s :     2.875593
      pz      :     1.073894  p :     3.082488
      px      :     0.977399
      py      :     1.031194
      dz2     :     0.023880  d :     0.102633
      dxz     :     0.015588
      dyz     :     0.039793
      dx2y2   :     0.011659
      dxy     :     0.011713
  3 C s       :     2.872807  s :     2.872807
      pz      :     1.040478  p :     3.108402
      px      :     1.022448
      py      :     1.045476
      dz2     :     0.025154  d :     0.093535
      dxz     :     0.006298
      dyz     :     0.030142
      dx2y2   :     0.015474
      dxy     :     0.016468
  4 C s       :     2.896557  s :     2.896557
      pz      :     1.024849  p :     3.202448
      px      :     1.078741
      py      :     1.098858
      dz2     :     0.036514  d :     0.114297
      dxz     :     0.014815
      dyz     :     0.029044
      dx2y2   :     0.016307
      dxy     :     0.017616
  5 H s       :     0.899980  s :     0.899980
      pz      :     0.039770  p :     0.063365
      px      :     0.014231
      py      :     0.009364
  6 C s       :     2.837017  s :     2.837017
      pz      :     1.066805  p :     3.101051
      px      :     1.036252
      py      :     0.997993
      dz2     :     0.010806  d :     0.082539
      dxz     :     0.018986
      dyz     :     0.017811
      dx2y2   :     0.021908
      dxy     :     0.013028
  7 H s       :     0.898191  s :     0.898191
      pz      :     0.023132  p :     0.070395
      px      :     0.030030
      py      :     0.017232
  8 H s       :     0.906632  s :     0.906632
      pz      :     0.031850  p :     0.066660
      px      :     0.013091
      py      :     0.021719
  9 C s       :     2.828708  s :     2.828708
      pz      :     1.049737  p :     3.127742
      px      :     1.010108
      py      :     1.067897
      dz2     :     0.008234  d :     0.091767
      dxz     :     0.023048
      dyz     :     0.026347
      dx2y2   :     0.025879
      dxy     :     0.008259
 10 H s       :     0.908787  s :     0.908787
      pz      :     0.019378  p :     0.060661
      px      :     0.011183
      py      :     0.030100
 11 H s       :     0.907255  s :     0.907255
      pz      :     0.029448  p :     0.074486
      px      :     0.015752
      py      :     0.029287
 12 C s       :     2.839805  s :     2.839805
      pz      :     1.045801  p :     3.154158
      px      :     1.041151
      py      :     1.067205
      dz2     :     0.007071  d :     0.073537
      dxz     :     0.021901
      dyz     :     0.020490
      dx2y2   :     0.019828
      dxy     :     0.004248
 13 H s       :     0.905883  s :     0.905883
      pz      :     0.014923  p :     0.059950
      px      :     0.010935
      py      :     0.034092
 14 H s       :     0.913948  s :     0.913948
      pz      :     0.028781  p :     0.065116
      px      :     0.012459
      py      :     0.023876
 15 H s       :     0.904596  s :     0.904596
      pz      :     0.021710  p :     0.065050
      px      :     0.030773
      py      :     0.012566
 16 S s       :     5.536627  s :     5.536627
      pz      :     3.358541  p :     9.966560
      px      :     3.508732
      py      :     3.099287
      dz2     :     0.028965  d :     0.119932
      dxz     :     0.017599
      dyz     :     0.025992
      dx2y2   :     0.014715
      dxy     :     0.032662
 17 C s       :     2.941177  s :     2.941177
      pz      :     1.011112  p :     3.160828
      px      :     1.079171
      py      :     1.070545
      dz2     :     0.018669  d :     0.078451
      dxz     :     0.012780
      dyz     :     0.017354
      dx2y2   :     0.015104
      dxy     :     0.014544
 18 C s       :     2.874643  s :     2.874643
      pz      :     1.039877  p :     3.120936
      px      :     1.039089
      py      :     1.041970
      dz2     :     0.016304  d :     0.088172
      dxz     :     0.012858
      dyz     :     0.022349
      dx2y2   :     0.018417
      dxy     :     0.018245
 19 C s       :     2.885116  s :     2.885116
      pz      :     1.023864  p :     3.064823
      px      :     1.009142
      py      :     1.031817
      dz2     :     0.018912  d :     0.095481
      dxz     :     0.018868
      dyz     :     0.022712
      dx2y2   :     0.018931
      dxy     :     0.016058
 20 C s       :     2.921912  s :     2.921912
      pz      :     1.099173  p :     3.172734
      px      :     1.068394
      py      :     1.005167
      dz2     :     0.019081  d :     0.096613
      dxz     :     0.014098
      dyz     :     0.020482
      dx2y2   :     0.018476
      dxy     :     0.024477
 21 H s       :     0.898168  s :     0.898168
      pz      :     0.036974  p :     0.069389
      px      :     0.018266
      py      :     0.014150
 22 C s       :     2.845449  s :     2.845449
      pz      :     1.031761  p :     3.105011
      px      :     1.041361
      py      :     1.031889
      dz2     :     0.010643  d :     0.081504
      dxz     :     0.020618
      dyz     :     0.020747
      dx2y2   :     0.005878
      dxy     :     0.023617
 23 H s       :     0.894865  s :     0.894865
      pz      :     0.026446  p :     0.063686
      px      :     0.016519
      py      :     0.020721
 24 H s       :     0.900263  s :     0.900263
      pz      :     0.018918  p :     0.072637
      px      :     0.029197
      py      :     0.024522
 25 C s       :     2.828805  s :     2.828805
      pz      :     1.020799  p :     3.124968
      px      :     1.051889
      py      :     1.052281
      dz2     :     0.011941  d :     0.088014
      dxz     :     0.023153
      dyz     :     0.021454
      dx2y2   :     0.007916
      dxy     :     0.023550
 26 H s       :     0.906245  s :     0.906245
      pz      :     0.025527  p :     0.059715
      px      :     0.017367
      py      :     0.016822
 27 H s       :     0.905585  s :     0.905585
      pz      :     0.023608  p :     0.080658
      px      :     0.027462
      py      :     0.029589
 28 C s       :     2.836245  s :     2.836245
      pz      :     1.055991  p :     3.155015
      px      :     1.058729
      py      :     1.040296
      dz2     :     0.010153  d :     0.071831
      dxz     :     0.020033
      dyz     :     0.013635
      dx2y2   :     0.005874
      dxy     :     0.022136
 29 H s       :     0.906867  s :     0.906867
      pz      :     0.032647  p :     0.068469
      px      :     0.020246
      py      :     0.015576
 30 H s       :     0.906360  s :     0.906360
      pz      :     0.025005  p :     0.063882
      px      :     0.021199
      py      :     0.017679
 31 H s       :     0.909209  s :     0.909209
      pz      :     0.014430  p :     0.062906
      px      :     0.024256
      py      :     0.024220
 32 H s       :     0.902573  s :     0.902573
      pz      :     0.035754  p :     0.082594
      px      :     0.020821
      py      :     0.026018
 33 H s       :     0.890158  s :     0.890158
      pz      :     0.017031  p :     0.073110
      px      :     0.015193
      py      :     0.040887


                      *****************************
                      * MAYER POPULATION ANALYSIS *
                      *****************************

  NA   - Mulliken gross atomic population
  ZA   - Total nuclear charge
  QA   - Mulliken gross atomic charge
  VA   - Mayer's total valence
  BVA  - Mayer's bonded valence
  FA   - Mayer's free valence

  ATOM       NA         ZA         QA         VA         BVA        FA
  0 S     15.8851    16.0000     0.1149     2.4829     2.4829    -0.0000
  1 C      6.0905     6.0000    -0.0905     3.8583     3.8583     0.0000
  2 C      6.1173     6.0000    -0.1173     3.9984     3.9984     0.0000
  3 C      6.0034     6.0000    -0.0034     3.9380     3.9380     0.0000
  4 C      6.1497     6.0000    -0.1497     3.9359     3.9359     0.0000
  5 H      0.9753     1.0000     0.0247     1.0041     1.0041    -0.0000
  6 C      5.9015     6.0000     0.0985     3.9551     3.9551    -0.0000
  7 H      0.9697     1.0000     0.0303     0.9839     0.9839    -0.0000
  8 H      0.9819     1.0000     0.0181     0.9912     0.9912    -0.0000
  9 C      6.0727     6.0000    -0.0727     4.0726     4.0726    -0.0000
 10 H      0.9650     1.0000     0.0350     0.9779     0.9779    -0.0000
 11 H      0.9839     1.0000     0.0161     0.9854     0.9854     0.0000
 12 C      6.0633     6.0000    -0.0633     3.9956     3.9956    -0.0000
 13 H      0.9511     1.0000     0.0489     0.9908     0.9908    -0.0000
 14 H      0.9728     1.0000     0.0272     0.9880     0.9880    -0.0000
 15 H      0.9603     1.0000     0.0397     0.9857     0.9857    -0.0000
 16 S     15.9097    16.0000     0.0903     2.4671     2.4671     0.0000
 17 C      6.0871     6.0000    -0.0871     3.8405     3.8405     0.0000
 18 C      6.0688     6.0000    -0.0688     3.9734     3.9734    -0.0000
 19 C      6.0198     6.0000    -0.0198     3.9605     3.9605    -0.0000
 20 C      6.1533     6.0000    -0.1533     3.8943     3.8943    -0.0000
 21 H      0.9723     1.0000     0.0277     0.9986     0.9986    -0.0000
 22 C      5.9904     6.0000     0.0096     3.9626     3.9626    -0.0000
 23 H      0.9437     1.0000     0.0563     0.9869     0.9869    -0.0000
 24 H      0.9627     1.0000     0.0373     0.9837     0.9837    -0.0000
 25 C      6.0850     6.0000    -0.0850     4.1001     4.1001     0.0000
 26 H      0.9507     1.0000     0.0493     0.9731     0.9731    -0.0000
 27 H      0.9773     1.0000     0.0227     0.9762     0.9762    -0.0000
 28 C      6.0248     6.0000    -0.0248     4.0002     4.0002    -0.0000
 29 H      0.9662     1.0000     0.0338     0.9863     0.9863    -0.0000
 30 H      0.9583     1.0000     0.0417     0.9897     0.9897    -0.0000
 31 H      0.9751     1.0000     0.0249     0.9903     0.9903     0.0000
 32 H      0.9771     1.0000     0.0229     1.0130     1.0130     0.0000
 33 H      0.9342     1.0000     0.0658     0.9950     0.9950     0.0000

  Mayer bond orders larger than 0.100000
B(  0-S ,  1-C ) :   1.1458 B(  0-S ,  4-C ) :   1.1495 B(  1-C ,  2-C ) :   1.6105 
B(  1-C , 32-H ) :   0.9730 B(  2-C ,  3-C ) :   1.2387 B(  2-C ,  6-C ) :   1.0141 
B(  3-C ,  4-C ) :   1.6012 B(  3-C ,  5-H ) :   0.9774 B(  4-C , 20-C ) :   1.0390 
B(  6-C ,  7-H ) :   0.9360 B(  6-C ,  8-H ) :   0.9487 B(  6-C ,  9-C ) :   1.0612 
B(  9-C , 10-H ) :   0.9540 B(  9-C , 11-H ) :   0.9544 B(  9-C , 12-C ) :   1.0829 
B( 12-C , 13-H ) :   0.9732 B( 12-C , 14-H ) :   0.9753 B( 12-C , 15-H ) :   0.9713 
B( 16-S , 17-C ) :   1.1514 B( 16-S , 20-C ) :   1.1296 B( 17-C , 18-C ) :   1.6121 
B( 17-C , 20-C ) :   0.1074 B( 17-C , 33-H ) :   0.9627 B( 18-C , 19-C ) :   1.2466 
B( 18-C , 21-H ) :   0.9797 B( 19-C , 20-C ) :   1.5767 B( 19-C , 22-C ) :   1.0154 
B( 22-C , 23-H ) :   0.9433 B( 22-C , 24-H ) :   0.9304 B( 22-C , 25-C ) :   1.0668 
B( 25-C , 26-H ) :   0.9444 B( 25-C , 27-H ) :   0.9584 B( 25-C , 28-C ) :   1.0846 
B( 28-C , 29-H ) :   0.9721 B( 28-C , 30-H ) :   0.9742 B( 28-C , 31-H ) :   0.9723 


-------
TIMINGS
-------

Total SCF time: 0 days 0 hours 0 min 19 sec 

Total time                  ....      19.208 sec
Sum of individual times     ....      18.345 sec  ( 95.5%)

Fock matrix formation       ....      16.678 sec  ( 86.8%)
  XC integration            ....       1.482 sec  (  8.9% of F)
    Basis function eval.    ....       0.143 sec  (  9.7% of XC)
    Density eval.           ....       0.099 sec  (  6.7% of XC)
    XC-Functional eval.     ....       0.117 sec  (  7.9% of XC)
    XC-Potential eval.      ....       0.119 sec  (  8.0% of XC)
Diagonalization             ....       0.137 sec  (  0.7%)
Density matrix formation    ....       0.024 sec  (  0.1%)
Population analysis         ....       0.057 sec  (  0.3%)
Initial guess               ....       0.172 sec  (  0.9%)
Orbital Transformation      ....       0.000 sec  (  0.0%)
Orbital Orthonormalization  ....       0.000 sec  (  0.0%)
DIIS solution               ....       0.162 sec  (  0.8%)
SOSCF solution              ....       0.124 sec  (  0.6%)
Grid generation             ....       0.992 sec  (  5.2%)


-------------------------------------------------------------------------------
                          DFT DISPERSION CORRECTION                            
                                                                               
                              DFTD3 V3.1  Rev 1                                
                              USING zero damping                               
-------------------------------------------------------------------------------
The omegaB97X-D3 functional is recognized. Fit by Chai et al.
Active option DFTDOPT                   ...         3   

molecular C6(AA) [au] = 14209.411736 


            DFT-D V3
 parameters
 s6 scaling factor         :     1.0000 
 rs6 scaling factor        :     1.2810 
 s8 scaling factor         :     1.0000 
 rs8 scaling factor        :     1.0940 
 Damping factor alpha6     :    14.0000 
 Damping factor alpha8     :    16.0000 
 ad hoc parameters k1-k3   :    16.0000     1.3333    -4.0000 

 Edisp/kcal,au: -8.669125664059  -0.013815129648 
 E6   /kcal   :  -3.889467138 
 E8   /kcal   :  -4.779658526 
 % E8         :  55.134262803 

-------------------------   ----------------
Dispersion correction           -0.013815130
-------------------------   ----------------


-------------------------   --------------------
FINAL SINGLE POINT ENERGY     -1339.870584254347
-------------------------   --------------------


                            ***************************************
                            *     ORCA property calculations      *
                            ***************************************

                                    ---------------------
                                    Active property flags
                                    ---------------------
   (+) Dipole Moment


------------------------------------------------------------------------------
                       ORCA ELECTRIC PROPERTIES CALCULATION
------------------------------------------------------------------------------

Dipole Moment Calculation                       ... on
Quadrupole Moment Calculation                   ... off
Polarizability Calculation                      ... off
GBWName                                         ... config_746.gbw
Electron density file                           ... config_746.scfp
The origin for moment calculation is the CENTER OF MASS  = (-66.307248, -23.083717 27.109719)

-------------
DIPOLE MOMENT
-------------
                                X             Y             Z
Electronic contribution:     -2.56853     -20.55989      15.83261
Nuclear contribution   :      2.77905      21.07207     -16.53023
                        -----------------------------------------
Total Dipole Moment    :      0.21053       0.51218      -0.69762
                        -----------------------------------------
Magnitude (a.u.)       :      0.89069
Magnitude (Debye)      :      2.26395



--------------------
Rotational spectrum 
--------------------
 
Rotational constants in cm-1:     0.017086     0.008241     0.006535 
Rotational constants in MHz :   512.216782   247.071670   195.906187 

 Dipole components along the rotational axes: 
x,y,z [a.u.] :    -0.096692    -0.850739    -0.245402 
x,y,z [Debye]:    -0.245770    -2.162407    -0.623762 

 

Timings for individual modules:

Sum of individual times         ...       20.373 sec (=   0.340 min)
GTO integral calculation        ...        0.787 sec (=   0.013 min)   3.9 %
SCF iterations                  ...       19.585 sec (=   0.326 min)  96.1 %
                             ****ORCA TERMINATED NORMALLY****
TOTAL RUN TIME: 0 days 0 hours 0 minutes 21 seconds 78 msec
