
                                 *****************
                                 * O   R   C   A *
                                 *****************

           --- An Ab Initio, DFT and Semiempirical electronic structure package ---

                  #######################################################
                  #                        -***-                        #
                  #          Department of theory and spectroscopy      #
                  #               Directorship: Frank Neese             #
                  #        Max Planck Institute fuer Kohlenforschung    #
                  #                Kaiser Wilhelm Platz 1               #
                  #                 D-45470 Muelheim/Ruhr               #
                  #                      Germany                        #
                  #                                                     #
                  #                  All rights reserved                #
                  #                        -***-                        #
                  #######################################################


                         Program Version 4.2.1 -  RELEASE  -


 With contributions from (in alphabetic order):
   Daniel Aravena         : Magnetic Suceptibility
   Michael Atanasov       : Ab Initio Ligand Field Theory (pilot matlab implementation)
   Alexander A. Auer      : GIAO ZORA, VPT2
   Ute Becker             : Parallelization
   Giovanni Bistoni       : ED, misc. LED, open-shell LED, HFLD
   Martin Brehm           : Molecular dynamics
   Dmytro Bykov           : SCF Hessian
   Vijay G. Chilkuri      : MRCI spin determinant printing, contributions to CSF-ICE
   Dipayan Datta          : RHF DLPNO-CCSD density
   Achintya Kumar Dutta   : EOM-CC, STEOM-CC
   Dmitry Ganyushin       : Spin-Orbit,Spin-Spin,Magnetic field MRCI
   Miquel Garcia          : C-PCM Hessian, Gaussian charge scheme
   Yang Guo               : DLPNO-NEVPT2, CIM, IAO-localization
   Andreas Hansen         : Spin unrestricted coupled pair/coupled cluster methods
   Benjamin Helmich-Paris : CASSCF linear response (MC-RPA)
   Lee Huntington         : MR-EOM, pCC
   Robert Izsak           : Overlap fitted RIJCOSX, COSX-SCS-MP3, EOM
   Christian Kollmar      : KDIIS, OOCD, Brueckner-CCSD(T), CCSD density
   Simone Kossmann        : Meta GGA functionals, TD-DFT gradient, OOMP2, MP2 Hessian
   Martin Krupicka        : AUTO-CI
   Lucas Lang             : DCDCAS
   Dagmar Lenk            : GEPOL surface, SMD
   Dimitrios Liakos       : Extrapolation schemes; Compound Job, initial MDCI parallelization
   Dimitrios Manganas     : Further ROCIS development; embedding schemes
   Dimitrios Pantazis     : SARC Basis sets
   Taras Petrenko         : DFT Hessian,TD-DFT gradient, ASA, ECA, R-Raman, ABS, FL, XAS/XES, NRVS
   Peter Pinski           : DLPNO-MP2, DLPNO-MP2 Gradient
   Christoph Reimann      : Effective Core Potentials
   Marius Retegan         : Local ZFS, SOC
   Christoph Riplinger    : Optimizer, TS searches, QM/MM, DLPNO-CCSD(T), (RO)-DLPNO pert. Triples
   Tobias Risthaus        : Range-separated hybrids, TD-DFT gradient, RPA, STAB
   Michael Roemelt        : Original ROCIS implementation
   Masaaki Saitow         : Open-shell DLPNO-CCSD energy and density
   Barbara Sandhoefer     : DKH picture change effects
   Avijit Sen             : IP-ROCIS
   Kantharuban Sivalingam : CASSCF convergence, NEVPT2, FIC-MRCI
   Bernardo de Souza      : ESD, SOC TD-DFT
   Georgi Stoychev        : AutoAux, RI-MP2 NMR
   Willem Van den Heuvel  : Paramagnetic NMR
   Boris Wezisla          : Elementary symmetry handling
   Frank Wennmohs         : Technical directorship


 We gratefully acknowledge several colleagues who have allowed us to
 interface, adapt or use parts of their codes:
   Stefan Grimme, W. Hujo, H. Kruse,             : VdW corrections, initial TS optimization,
                  C. Bannwarth                     DFT functionals, gCP, sTDA/sTD-DF
   Ed Valeev, F. Pavosevic, A. Kumar             : LibInt (2-el integral package), F12 methods
   Garnet Chan, S. Sharma, J. Yang, R. Olivares  : DMRG
   Ulf Ekstrom                                   : XCFun DFT Library
   Mihaly Kallay                                 : mrcc  (arbitrary order and MRCC methods)
   Andreas Klamt, Michael Diedenhofen            : otool_cosmo (COSMO solvation model)
   Jiri Pittner, Ondrej Demel                    : Mk-CCSD
   Frank Weinhold                                : gennbo (NPA and NBO analysis)
   Christopher J. Cramer and Donald G. Truhlar   : smd solvation model
   Lars Goerigk                                  : TD-DFT with DH, B97 family of functionals
   V. Asgeirsson, H. Jonsson                     : NEB implementation
   FAccTs GmbH                                   : IRC, NEB, NEB-TS, Multilevel, MM, QM/MM, CI optimization
   S Lehtola, MJT Oliveira, MAL Marques          : LibXC Library


 Your calculation uses the libint2 library for the computation of 2-el integrals
 For citations please refer to: http://libint.valeyev.net

 Your ORCA version has been built with support for libXC version: 4.2.3
 For citations please refer to: https://tddft.org/programs/libxc/

 This ORCA versions uses:
   CBLAS   interface :  Fast vector & matrix operations
   LAPACKE interface :  Fast linear algebra routines
   SCALAPACK package :  Parallel linear algebra routines


Your calculation utilizes the atom-pairwise dispersion correction
with the zero-damping scheme (D30)
Cite in your paper:
S.Grimme, J.Antony, S.Ehrlich and H.Krieg, J.Chem.Phys., 132, (2010), 154104 
   

XCFun DFT library Copyright 2009-2010 Ulf Ekstrom and contributors.
See http://admol.org/xcfun for more information. This is free soft-
ware; see the source code for copying conditions. There is ABSOLUTELY
NO WARRANTY; not even for MERCHANTABILITY or FITNESS FOR A PARTICULAR
PURPOSE. For details see the documentation. Scientific users of this 
library should cite U. Ekstrom, L. Visscher, R. Bast, A. J. Thorvald-
sen and K. Ruud; J.Chem.Theor.Comp. 2010, DOI: 10.1021/ct100117s
XCFun Version 0.99 
----- Orbital basis set information -----
Your calculation utilizes the basis: def2-SVP
   F. Weigend and R. Ahlrichs, Phys. Chem. Chem. Phys. 7, 3297 (2005).

================================================================================
                                        WARNINGS
                       Please study these warnings very carefully!
================================================================================


INFO   : the flag for use of LIBINT has been found!

================================================================================
                                       INPUT FILE
================================================================================
NAME = config_5374.inp
|  1> ! wB97X-D3 SP def2-SVP
|  2> %pal
|  3> nprocs 24
|  4> end
|  5> 
|  6> * xyz 0 1
|  7> S 	 -103.794 	 23.3847 	 -111.723 	 
|  8> C 	 -103.095 	 21.9172 	 -111.125 	 
|  9> C 	 -101.826 	 22.1495 	 -110.574 	 
| 10> C 	 -101.53 	 23.5231 	 -110.468 	 
| 11> C 	 -102.53 	 24.3515 	 -111.014 	 
| 12> H 	 -100.716 	 23.9453 	 -109.938 	 
| 13> C 	 -100.961 	 21.1329 	 -109.902 	 
| 14> H 	 -100.052 	 21.554 	 -109.519 	 
| 15> H 	 -100.698 	 20.3916 	 -110.632 	 
| 16> C 	 -101.581 	 20.384 	 -108.709 	 
| 17> H 	 -101.854 	 21.103 	 -107.928 	 
| 18> H 	 -102.511 	 19.8988 	 -109.025 	 
| 19> C 	 -100.638 	 19.3999 	 -108.044 	 
| 20> H 	 -101.2 	 18.6255 	 -107.491 	 
| 21> H 	 -99.9848 	 18.9205 	 -108.764 	 
| 22> H 	 -100.041 	 19.9779 	 -107.343 	 
| 23> S 	 -101.475 	 26.2949 	 -112.603 	 
| 24> C 	 -101.739 	 27.9049 	 -112.045 	 
| 25> C 	 -102.79 	 28.0229 	 -111.186 	 
| 26> C 	 -103.181 	 26.7559 	 -110.651 	 
| 27> C 	 -102.454 	 25.7437 	 -111.191 	 
| 28> H 	 -103.118 	 29.0127 	 -110.812 	 
| 29> C 	 -104.22 	 26.5963 	 -109.569 	 
| 30> H 	 -104.323 	 25.5292 	 -109.176 	 
| 31> H 	 -105.219 	 26.7049 	 -110.024 	 
| 32> C 	 -104.117 	 27.4451 	 -108.284 	 
| 33> H 	 -103.169 	 27.7299 	 -107.995 	 
| 34> H 	 -104.626 	 26.8886 	 -107.534 	 
| 35> C 	 -104.886 	 28.8059 	 -108.329 	 
| 36> H 	 -105.999 	 28.6732 	 -108.612 	 
| 37> H 	 -104.43 	 29.2982 	 -109.191 	 
| 38> H 	 -104.804 	 29.4125 	 -107.465 	 
| 39> H 	 -103.544 	 20.9404 	 -111.201 	 
| 40> H 	 -101.346 	 28.8085 	 -112.586 	 
| 41> *
| 42> 
| 43>                          ****END OF INPUT****
================================================================================

                       ****************************
                       * Single Point Calculation *
                       ****************************

---------------------------------
CARTESIAN COORDINATES (ANGSTROEM)
---------------------------------
  S    -103.794000   23.384700  -111.723000
  C    -103.095000   21.917200  -111.125000
  C    -101.826000   22.149500  -110.574000
  C    -101.530000   23.523100  -110.468000
  C    -102.530000   24.351500  -111.014000
  H    -100.716000   23.945300  -109.938000
  C    -100.961000   21.132900  -109.902000
  H    -100.052000   21.554000  -109.519000
  H    -100.698000   20.391600  -110.632000
  C    -101.581000   20.384000  -108.709000
  H    -101.854000   21.103000  -107.928000
  H    -102.511000   19.898800  -109.025000
  C    -100.638000   19.399900  -108.044000
  H    -101.200000   18.625500  -107.491000
  H    -99.984800   18.920500  -108.764000
  H    -100.041000   19.977900  -107.343000
  S    -101.475000   26.294900  -112.603000
  C    -101.739000   27.904900  -112.045000
  C    -102.790000   28.022900  -111.186000
  C    -103.181000   26.755900  -110.651000
  C    -102.454000   25.743700  -111.191000
  H    -103.118000   29.012700  -110.812000
  C    -104.220000   26.596300  -109.569000
  H    -104.323000   25.529200  -109.176000
  H    -105.219000   26.704900  -110.024000
  C    -104.117000   27.445100  -108.284000
  H    -103.169000   27.729900  -107.995000
  H    -104.626000   26.888600  -107.534000
  C    -104.886000   28.805900  -108.329000
  H    -105.999000   28.673200  -108.612000
  H    -104.430000   29.298200  -109.191000
  H    -104.804000   29.412500  -107.465000
  H    -103.544000   20.940400  -111.201000
  H    -101.346000   28.808500  -112.586000

----------------------------
CARTESIAN COORDINATES (A.U.)
----------------------------
  NO LB      ZA    FRAG     MASS         X           Y           Z
   0 S    16.0000    0    32.060  -196.142234   44.190679  -211.125873
   1 C     6.0000    0    12.011  -194.821316   41.417506  -209.995817
   2 C     6.0000    0    12.011  -192.423253   41.856489  -208.954578
   3 C     6.0000    0    12.011  -191.863894   44.452217  -208.754267
   4 C     6.0000    0    12.011  -193.753621   46.017666  -209.786057
   5 H     1.0000    0     1.008  -190.325657   45.250059  -207.752712
   6 C     6.0000    0    12.011  -190.788640   39.935393  -207.684682
   7 H     1.0000    0     1.008  -189.070879   40.731157  -206.960916
   8 H     1.0000    0     1.008  -190.291642   38.534539  -209.064182
   9 C     6.0000    0    12.011  -191.960270   38.520178  -205.430238
  10 H     1.0000    0     1.008  -192.476166   39.878891  -203.954362
  11 H     1.0000    0     1.008  -193.717716   37.603282  -206.027392
  12 C     6.0000    0    12.011  -190.178259   36.660498  -204.173570
  13 H     1.0000    0     1.008  -191.240285   35.197094  -203.128552
  14 H     1.0000    0     1.008  -188.943890   35.754563  -205.534173
  15 H     1.0000    0     1.008  -189.050092   37.752760  -202.848872
  16 S    16.0000    0    32.060  -191.759959   49.690160  -212.788832
  17 C     6.0000    0    12.011  -192.258847   52.732619  -211.734365
  18 C     6.0000    0    12.011  -194.244949   52.955606  -210.111090
  19 C     6.0000    0    12.011  -194.983832   50.561323  -209.100086
  20 C     6.0000    0    12.011  -193.610001   48.648543  -210.120539
  21 H     1.0000    0     1.008  -194.864779   54.826057  -209.404332
  22 C     6.0000    0    12.011  -196.947258   50.259723  -207.055403
  23 H     1.0000    0     1.008  -197.141899   48.243196  -206.312740
  24 H     1.0000    0     1.008  -198.835094   50.464947  -207.915228
  25 C     6.0000    0    12.011  -196.752616   51.863723  -204.627105
  26 H     1.0000    0     1.008  -194.961156   52.401917  -204.080974
  27 H     1.0000    0     1.008  -197.714486   50.812090  -203.209810
  28 C     6.0000    0    12.011  -198.205815   54.435262  -204.712142
  29 H     1.0000    0     1.008  -200.309080   54.184495  -205.246935
  30 H     1.0000    0     1.008  -197.344100   55.365574  -206.341086
  31 H     1.0000    0     1.008  -198.050858   55.581570  -203.079419
  32 H     1.0000    0     1.008  -195.669803   39.571621  -210.139436
  33 H     1.0000    0     1.008  -191.516185   54.440175  -212.756707

--------------------------------
INTERNAL COORDINATES (ANGSTROEM)
--------------------------------
 S      0   0   0     0.000000000000     0.00000000     0.00000000
 C      1   0   0     1.731981885009     0.00000000     0.00000000
 C      2   1   0     1.402827605232   111.12413042     0.00000000
 C      3   2   1     1.409123472234   112.39478434     8.71651728
 C      4   3   2     1.408674043205   113.26411890   356.16295309
 H      4   3   2     1.059126451374   125.99163590   168.82910125
 C      3   2   1     1.494417799680   125.98519192   176.63124927
 H      7   3   2     1.072518163016   112.58551722   182.67434384
 H      7   3   2     1.073123799941   107.81119942    63.84303772
 C      7   3   2     1.538993245599   116.51441715   303.80473016
 H     10   7   3     1.096107202786   109.47962821   299.76923764
 H     10   7   3     1.095525006561   109.50641904    56.22948164
 C     10   7   3     1.516550958590   113.90248511   181.87734001
 H     13  10   7     1.105146307056   110.97208234   202.49477687
 H     13  10   7     1.083925550949   111.74295737   324.64246722
 H     13  10   7     1.087149483742   106.21261777    83.90365389
 S      5   4   3     2.723003775245   111.76790307   226.55311353
 C     17   5   4     1.724285359214   114.72293922   243.43536886
 C     18  17   5     1.362499908257   113.76539180   338.50495305
 C     19  18  17     1.429823415671   111.72164239    16.88072299
 C     20  19  18     1.358189176809   111.42282968   356.59168972
 H     19  18  17     1.107774363307   121.24040453   184.69923152
 C     20  19  18     1.508548030392   123.39900571   173.49546438
 H     23  20  19     1.141823283175   114.07102932   186.68997342
 H     23  20  19     1.103095625955   108.51090753    77.69723045
 C     23  20  19     1.543468639137   119.53753031   309.84846161
 H     26  23  20     1.031181865628   116.52334092   331.10331635
 H     26  23  20     1.063613299089   105.50916030   205.14677301
 C     26  23  20     1.563701582784   114.94803169    91.31169940
 H     29  26  23     1.156056784937   112.37197137    54.09346083
 H     29  26  23     1.092400700293   102.09930633   301.99024945
 H     29  26  23     1.058859556315   115.91126893   181.59665361
 H      2   1   3     1.077736164374   125.13148238   182.68228237
 H     18  17   5     1.124109852283   122.77118454   178.83129423

---------------------------
INTERNAL COORDINATES (A.U.)
---------------------------
 S      0   0   0     0.000000000000     0.00000000     0.00000000
 C      1   0   0     3.272971431580     0.00000000     0.00000000
 C      2   1   0     2.650959986992   111.12413042     0.00000000
 C      3   2   1     2.662857451402   112.39478434     8.71651728
 C      4   3   2     2.662008153621   113.26411890   356.16295309
 H      4   3   2     2.001458934289   125.99163590   168.82910125
 C      3   2   1     2.824040371052   125.98519192   176.63124927
 H      7   3   2     2.026765601757   112.58551722   182.67434384
 H      7   3   2     2.027910089682   107.81119942    63.84303772
 C      7   3   2     2.908275756137   116.51441715   303.80473016
 H     10   7   3     2.071342426685   109.47962821   299.76923764
 H     10   7   3     2.070242235262   109.50641904    56.22948164
 C     10   7   3     2.865865979871   113.90248511   181.87734001
 H     13  10   7     2.088423858251   110.97208234   202.49477687
 H     13  10   7     2.048322440853   111.74295737   324.64246722
 H     13  10   7     2.054414790906   106.21261777    83.90365389
 S      5   4   3     5.145731396847   111.76790307   226.55311353
 C     17   5   4     3.258427105645   114.72293922   243.43536886
 C     18  17   5     2.574751684098   113.76539180   338.50495305
 C     19  18  17     2.701974675485   111.72164239    16.88072299
 C     20  19  18     2.566605582224   111.42282968   356.59168972
 H     19  18  17     2.093390164829   121.24040453   184.69923152
 C     20  19  18     2.850742637307   123.39900571   173.49546438
 H     23  20  19     2.157733298535   114.07102932   186.68997342
 H     23  20  19     2.084548632580   108.51090753    77.69723045
 C     23  20  19     2.916733024265   119.53753031   309.84846161
 H     26  23  20     1.948651320303   116.52334092   331.10331635
 H     26  23  20     2.009937847676   105.50916030   205.14677301
 C     26  23  20     2.954967746640   114.94803169    91.31169940
 H     29  26  23     2.184630718793   112.37197137    54.09346083
 H     29  26  23     2.064338152057   102.09930633   301.99024945
 H     29  26  23     2.000954575721   115.91126893   181.59665361
 H      2   1   3     2.036626195290   125.13148238   182.68228237
 H     18  17   5     2.124259765258   122.77118454   178.83129423

---------------------
BASIS SET INFORMATION
---------------------
There are 3 groups of distinct atoms

 Group   1 Type S   : 10s7p1d contracted to 4s3p1d pattern {5311/511/1}
 Group   2 Type C   : 7s4p1d contracted to 3s2p1d pattern {511/31/1}
 Group   3 Type H   : 4s1p contracted to 2s1p pattern {31/1}

Atom   0S    basis set group =>   1
Atom   1C    basis set group =>   2
Atom   2C    basis set group =>   2
Atom   3C    basis set group =>   2
Atom   4C    basis set group =>   2
Atom   5H    basis set group =>   3
Atom   6C    basis set group =>   2
Atom   7H    basis set group =>   3
Atom   8H    basis set group =>   3
Atom   9C    basis set group =>   2
Atom  10H    basis set group =>   3
Atom  11H    basis set group =>   3
Atom  12C    basis set group =>   2
Atom  13H    basis set group =>   3
Atom  14H    basis set group =>   3
Atom  15H    basis set group =>   3
Atom  16S    basis set group =>   1
Atom  17C    basis set group =>   2
Atom  18C    basis set group =>   2
Atom  19C    basis set group =>   2
Atom  20C    basis set group =>   2
Atom  21H    basis set group =>   3
Atom  22C    basis set group =>   2
Atom  23H    basis set group =>   3
Atom  24H    basis set group =>   3
Atom  25C    basis set group =>   2
Atom  26H    basis set group =>   3
Atom  27H    basis set group =>   3
Atom  28C    basis set group =>   2
Atom  29H    basis set group =>   3
Atom  30H    basis set group =>   3
Atom  31H    basis set group =>   3
Atom  32H    basis set group =>   3
Atom  33H    basis set group =>   3


           ************************************************************
           *        Program running with 24 parallel MPI-processes    *
           *              working on a common directory               *
           ************************************************************
------------------------------------------------------------------------------
                           ORCA GTO INTEGRAL CALCULATION
------------------------------------------------------------------------------

                         BASIS SET STATISTICS AND STARTUP INFO

 # of primitive gaussian shells          ...  294
 # of primitive gaussian functions       ...  534
 # of contracted shells                  ...  154
 # of contracted basis functions         ...  322
 Highest angular momentum                ...    2
 Maximum contraction depth               ...    5
 Integral package used                   ... LIBINT
 Integral threshhold            Thresh   ...  1.000e-10
 Primitive cut-off              TCut     ...  1.000e-11


------------------------------ INTEGRAL EVALUATION ----------------------------


 * One electron integrals 
 Pre-screening matrix                    ... done
 Shell pair data                         ... done (   0.003 sec)



           ************************************************************
           *        Program running with 24 parallel MPI-processes    *
           *              working on a common directory               *
           ************************************************************
-------------------------------------------------------------------------------
                                 ORCA SCF
-------------------------------------------------------------------------------

------------
SCF SETTINGS
------------
Hamiltonian:
 Density Functional     Method          .... DFT(GTOs)
 Exchange Functional    Exchange        .... WB97X-D3
 Correlation Functional Correlation     .... WB97X-D3
 Gradients option       PostSCFGGA      .... off
 Hybrid DFT is turned on
   Fraction HF Exchange ScalHFX         ....  0.195728
   Scaling of DF-GGA-X  ScalDFX         ....  0.000000
   Scaling of DF-GGA-C  ScalDFC         ....  1.000000
   Scaling of DF-LDA-C  ScalLDAC        ....  1.000000
   Perturbative correction              ....  0.000000
   Density functional embedding theory  .... OFF
 Long-range corrected/Screened/Range-Separated Hybrid DFT is turned on
   Amount of maximum screened exact exchange              ....  0.804272
   Range separation parameter mu (erf(mu*r12)/r12)        ....  0.250000


General Settings:
 Integral files         IntName         .... config_5374
 Hartree-Fock type      HFTyp           .... RHF
 Total Charge           Charge          ....    0
 Multiplicity           Mult            ....    1
 Number of Electrons    NEL             ....  134
 Basis Dimension        Dim             ....  322
 Nuclear Repulsion      ENuc            ....   1268.8719939793 Eh

Convergence Acceleration:
 DIIS                   CNVDIIS         .... on
   Start iteration      DIISMaxIt       ....    12
   Startup error        DIISStart       ....  0.200000
   # of expansion vecs  DIISMaxEq       ....     5
   Bias factor          DIISBfac        ....   1.050
   Max. coefficient     DIISMaxC        ....  10.000
 Newton-Raphson         CNVNR           .... off
 SOSCF                  CNVSOSCF        .... on
   Start iteration      SOSCFMaxIt      ....   150
   Startup grad/error   SOSCFStart      ....  0.003300
 Level Shifting         CNVShift        .... on
   Level shift para.    LevelShift      ....    0.2500
   Turn off err/grad.   ShiftErr        ....    0.0010
 Zerner damping         CNVZerner       .... off
 Static damping         CNVDamp         .... on
   Fraction old density DampFac         ....    0.7000
   Max. Damping (<1)    DampMax         ....    0.9800
   Min. Damping (>=0)   DampMin         ....    0.0000
   Turn off err/grad.   DampErr         ....    0.1000
 Fernandez-Rico         CNVRico         .... off

SCF Procedure:
 Maximum # iterations   MaxIter         ....   125
 SCF integral mode      SCFMode         .... Direct
   Integral package                     .... LIBINT
 Reset frequency        DirectResetFreq ....    20
 Integral Threshold     Thresh          ....  1.000e-10 Eh
 Primitive CutOff       TCut            ....  1.000e-11 Eh

Convergence Tolerance:
 Convergence Check Mode ConvCheckMode   .... Total+1el-Energy
 Convergence forced     ConvForced      .... 0
 Energy Change          TolE            ....  1.000e-06 Eh
 1-El. energy change                    ....  1.000e-03 Eh
 Orbital Gradient       TolG            ....  5.000e-05
 Orbital Rotation angle TolX            ....  5.000e-05
 DIIS Error             TolErr          ....  1.000e-06


Diagonalization of the overlap matrix:
Smallest eigenvalue                        ... 5.917e-04
Time for diagonalization                   ...    0.014 sec
Threshold for overlap eigenvalues          ... 1.000e-08
Number of eigenvalues below threshold      ... 0
Time for construction of square roots      ...    0.029 sec
Total time needed                          ...    0.043 sec

-------------------
DFT GRID GENERATION
-------------------

General Integration Accuracy     IntAcc      ...  4.340
Radial Grid Type                 RadialGrid  ... Gauss-Chebyshev
Angular Grid (max. acc.)         AngularGrid ... Lebedev-110
Angular grid pruning method      GridPruning ... 3 (G Style)
Weight generation scheme         WeightScheme... Becke
Basis function cutoff            BFCut       ...    1.0000e-10
Integration weight cutoff        WCut        ...    1.0000e-14
Grids for H and He will be reduced by one unit

# of grid points (after initial pruning)     ...  41088 (   0.0 sec)
# of grid points (after weights+screening)   ...  37102 (   0.0 sec)
nearest neighbour list constructed           ...    0.0 sec
Grid point re-assignment to atoms done       ...    0.0 sec
Grid point division into batches done        ...    0.0 sec
Reduced shell lists constructed in    0.1 sec

Total number of grid points                  ...    37102
Total number of batches                      ...      597
Average number of points per batch           ...       62
Average number of grid points per atom       ...     1091
Average number of shells per batch           ...    74.38 (48.30%)
Average number of basis functions per batch  ...   148.15 (46.01%)
Average number of large shells per batch     ...    47.50 (63.86%)
Average number of large basis fcns per batch ...    97.19 (65.60%)
Maximum spatial batch extension              ...  15.17, 11.86, 16.28 au
Average spatial batch extension              ...   0.16,  0.14,  0.17 au

Time for grid setup =    0.147 sec

------------------------------
INITIAL GUESS: MODEL POTENTIAL
------------------------------
Loading Hartree-Fock densities                     ... done
Calculating cut-offs                               ... done
Setting up the integral package                    ... done
Initializing the effective Hamiltonian             ... done
Starting the Coulomb interaction                   ... done (   0.0 sec)
Reading the grid                                   ... done
Mapping shells                                     ... done
Starting the XC term evaluation                    ... done (   0.0 sec)
  promolecular density results
     # of electrons  =    133.988524587
     EX              =   -126.748120182
     EC              =     -4.622439499
     EX+EC           =   -131.370559681
Transforming the Hamiltonian                       ... done (   0.0 sec)
Diagonalizing the Hamiltonian                      ... done (   0.0 sec)
Back transforming the eigenvectors                 ... done (   0.0 sec)
Now organizing SCF variables                       ... done
                      ------------------
                      INITIAL GUESS DONE (   0.3 sec)
                      ------------------
--------------
SCF ITERATIONS
--------------
ITER       Energy         Delta-E        Max-DP      RMS-DP      [F,P]     Damp
               ***  Starting incremental Fock matrix formation  ***
  0  -1339.4048503786   0.000000000000 0.06550683  0.00163087  0.1542195 0.7000
  1  -1339.5965072195  -0.191656840876 0.04412543  0.00119239  0.0932427 0.7000
                               ***Turning on DIIS***
  2  -1339.6902416453  -0.093734425808 0.09167251  0.00226190  0.0483259 0.0000
  3  -1339.8316566978  -0.141415052513 0.04590560  0.00100495  0.0418743 0.0000
  4  -1339.8616875587  -0.030030860915 0.00854721  0.00022639  0.0073902 0.0000
                      *** Initiating the SOSCF procedure ***
                           *** Shutting down DIIS ***
                      *** Re-Reading the Fockian *** 
                      *** Removing any level shift *** 
ITER      Energy       Delta-E        Grad      Rot      Max-DP    RMS-DP
  5  -1339.86266136  -0.0009737981  0.001716  0.001716  0.004587  0.000118
               *** Restarting incremental Fock matrix formation ***
  6  -1339.86285375  -0.0001923923  0.001476  0.003994  0.002619  0.000070
  7  -1339.86292042  -0.0000666660  0.000723  0.004560  0.002746  0.000070
  8  -1339.86293964  -0.0000192206  0.000203  0.000386  0.000624  0.000019
  9  -1339.86294328  -0.0000036472  0.000071  0.000296  0.000183  0.000006
 10  -1339.86294349  -0.0000002109  0.000061  0.000140  0.000082  0.000002
 11  -1339.86294361  -0.0000001137  0.000014  0.000038  0.000037  0.000001
                 **** Energy Check signals convergence ****
              ***Rediagonalizing the Fockian in SOSCF/NRSCF***

               *****************************************************
               *                     SUCCESS                       *
               *           SCF CONVERGED AFTER  12 CYCLES          *
               *****************************************************

Setting up the final grid:

General Integration Accuracy     IntAcc      ...  4.670
Radial Grid Type                 RadialGrid  ... Gauss-Chebyshev
Angular Grid (max. acc.)         AngularGrid ... Lebedev-302
Angular grid pruning method      GridPruning ... 3 (G Style)
Weight generation scheme         WeightScheme... Becke
Basis function cutoff            BFCut       ...    1.0000e-10
Integration weight cutoff        WCut        ...    1.0000e-14
Grids for H and He will be reduced by one unit

# of grid points (after initial pruning)     ... 161752 (   0.0 sec)
# of grid points (after weights+screening)   ... 143363 (   0.1 sec)
nearest neighbour list constructed           ...    0.0 sec
Grid point re-assignment to atoms done       ...    0.0 sec
Grid point division into batches done        ...    0.5 sec
Reduced shell lists constructed in    0.5 sec

Total number of grid points                  ...   143363
Total number of batches                      ...     2260
Average number of points per batch           ...       63
Average number of grid points per atom       ...     4217
Average number of shells per batch           ...    68.66 (44.58%)
Average number of basis functions per batch  ...   135.66 (42.13%)
Average number of large shells per batch     ...    42.43 (61.80%)
Average number of large basis fcns per batch ...    86.78 (63.97%)
Maximum spatial batch extension              ...  11.88, 12.40, 13.49 au
Average spatial batch extension              ...   0.10,  0.10,  0.11 au

Final grid set up in    0.8 sec
Final integration                            ... done (   0.2 sec)
Change in XC energy                          ...     0.007638337
Integrated number of electrons               ...   133.999908430
Previous integrated no of electrons          ...   133.996402193

----------------
TOTAL SCF ENERGY
----------------

Total Energy       :        -1339.85530527 Eh          -36459.31641 eV

Components:
Nuclear Repulsion  :         1268.87199398 Eh           34527.76231 eV
Electronic Energy  :        -2608.72729925 Eh          -70987.07873 eV
One Electron Energy:        -4354.46438029 Eh         -118490.99975 eV
Two Electron Energy:         1745.73708105 Eh           47503.92103 eV

Virial components:
Potential Energy   :        -2671.64720487 Eh          -72699.21640 eV
Kinetic Energy     :         1331.79189960 Eh           36239.89999 eV
Virial Ratio       :            2.00605455


DFT components:
N(Alpha)           :       66.999954214824 electrons
N(Beta)            :       66.999954214824 electrons
N(Total)           :      133.999908429649 electrons
E(XC)              :      -94.300899303309 Eh       
DFET-embed. en.    :        0.000000000000 Eh       

---------------
SCF CONVERGENCE
---------------

  Last Energy change         ...    4.6061e-09  Tolerance :   1.0000e-06
  Last MAX-Density change    ...    1.4877e-05  Tolerance :   1.0000e-05
  Last RMS-Density change    ...    3.8343e-07  Tolerance :   1.0000e-06
  Last Orbital Gradient      ...    8.7798e-06  Tolerance :   5.0000e-05
  Last Orbital Rotation      ...    1.1006e-05  Tolerance :   5.0000e-05

             **** THE GBW FILE WAS UPDATED (config_5374.gbw) ****
             **** DENSITY FILE WAS UPDATED (config_5374.scfp) ****
             **** ENERGY FILE WAS UPDATED (config_5374.en.tmp) ****
             **** THE GBW FILE WAS UPDATED (config_5374.gbw) ****
             **** DENSITY FILE WAS UPDATED (config_5374.scfp) ****
----------------
ORBITAL ENERGIES
----------------

  NO   OCC          E(Eh)            E(eV) 
   0   2.0000     -88.967197     -2420.9205 
   1   2.0000     -88.961490     -2420.7652 
   2   2.0000     -10.319855      -280.8175 
   3   2.0000     -10.317246      -280.7465 
   4   2.0000     -10.316658      -280.7305 
   5   2.0000     -10.313093      -280.6335 
   6   2.0000     -10.302808      -280.3537 
   7   2.0000     -10.297357      -280.2053 
   8   2.0000     -10.297334      -280.2047 
   9   2.0000     -10.293233      -280.0931 
  10   2.0000     -10.289238      -279.9844 
  11   2.0000     -10.284698      -279.8609 
  12   2.0000     -10.283225      -279.8208 
  13   2.0000     -10.280258      -279.7401 
  14   2.0000     -10.279810      -279.7278 
  15   2.0000     -10.277671      -279.6696 
  16   2.0000      -8.082003      -219.9225 
  17   2.0000      -8.076476      -219.7721 
  18   2.0000      -6.040346      -164.3662 
  19   2.0000      -6.036329      -164.2569 
  20   2.0000      -6.034879      -164.2174 
  21   2.0000      -6.033117      -164.1695 
  22   2.0000      -6.031364      -164.1217 
  23   2.0000      -6.026899      -164.0003 
  24   2.0000      -1.008795       -27.4507 
  25   2.0000      -0.984876       -26.7998 
  26   2.0000      -0.914524       -24.8855 
  27   2.0000      -0.906946       -24.6793 
  28   2.0000      -0.872351       -23.7379 
  29   2.0000      -0.852608       -23.2007 
  30   2.0000      -0.849739       -23.1226 
  31   2.0000      -0.810013       -22.0416 
  32   2.0000      -0.784082       -21.3360 
  33   2.0000      -0.768587       -20.9143 
  34   2.0000      -0.707979       -19.2651 
  35   2.0000      -0.698031       -18.9944 
  36   2.0000      -0.692478       -18.8433 
  37   2.0000      -0.657946       -17.9036 
  38   2.0000      -0.644832       -17.5468 
  39   2.0000      -0.614796       -16.7294 
  40   2.0000      -0.604076       -16.4377 
  41   2.0000      -0.575359       -15.6563 
  42   2.0000      -0.559649       -15.2288 
  43   2.0000      -0.544224       -14.8091 
  44   2.0000      -0.536389       -14.5959 
  45   2.0000      -0.524514       -14.2727 
  46   2.0000      -0.521598       -14.1934 
  47   2.0000      -0.513058       -13.9610 
  48   2.0000      -0.506692       -13.7878 
  49   2.0000      -0.500942       -13.6313 
  50   2.0000      -0.492595       -13.4042 
  51   2.0000      -0.476231       -12.9589 
  52   2.0000      -0.474978       -12.9248 
  53   2.0000      -0.465215       -12.6591 
  54   2.0000      -0.458601       -12.4792 
  55   2.0000      -0.446196       -12.1416 
  56   2.0000      -0.440776       -11.9941 
  57   2.0000      -0.437690       -11.9101 
  58   2.0000      -0.434627       -11.8268 
  59   2.0000      -0.426215       -11.5979 
  60   2.0000      -0.423707       -11.5297 
  61   2.0000      -0.417083       -11.3494 
  62   2.0000      -0.405235       -11.0270 
  63   2.0000      -0.336554        -9.1581 
  64   2.0000      -0.327152        -8.9023 
  65   2.0000      -0.319386        -8.6909 
  66   2.0000      -0.304801        -8.2940 
  67   0.0000       0.033155         0.9022 
  68   0.0000       0.057761         1.5718 
  69   0.0000       0.103328         2.8117 
  70   0.0000       0.124756         3.3948 
  71   0.0000       0.127638         3.4732 
  72   0.0000       0.144660         3.9364 
  73   0.0000       0.147733         4.0200 
  74   0.0000       0.154865         4.2141 
  75   0.0000       0.162423         4.4198 
  76   0.0000       0.172480         4.6934 
  77   0.0000       0.184597         5.0231 
  78   0.0000       0.190963         5.1964 
  79   0.0000       0.195047         5.3075 
  80   0.0000       0.198800         5.4096 
  81   0.0000       0.203484         5.5371 
  82   0.0000       0.209035         5.6881 
  83   0.0000       0.219752         5.9797 
  84   0.0000       0.225192         6.1278 
  85   0.0000       0.229929         6.2567 
  86   0.0000       0.233303         6.3485 
  87   0.0000       0.247145         6.7251 
  88   0.0000       0.250337         6.8120 
  89   0.0000       0.256353         6.9757 
  90   0.0000       0.265436         7.2229 
  91   0.0000       0.273445         7.4408 
  92   0.0000       0.280530         7.6336 
  93   0.0000       0.301452         8.2029 
  94   0.0000       0.308978         8.4077 
  95   0.0000       0.327308         8.9065 
  96   0.0000       0.333857         9.0847 
  97   0.0000       0.343854         9.3567 
  98   0.0000       0.345416         9.3992 
  99   0.0000       0.368040        10.0149 
 100   0.0000       0.393166        10.6986 
 101   0.0000       0.399658        10.8753 
 102   0.0000       0.416259        11.3270 
 103   0.0000       0.420319        11.4375 
 104   0.0000       0.445125        12.1125 
 105   0.0000       0.455368        12.3912 
 106   0.0000       0.459598        12.5063 
 107   0.0000       0.478366        13.0170 
 108   0.0000       0.491226        13.3669 
 109   0.0000       0.494769        13.4634 
 110   0.0000       0.503992        13.7143 
 111   0.0000       0.511023        13.9057 
 112   0.0000       0.513052        13.9609 
 113   0.0000       0.526395        14.3239 
 114   0.0000       0.531004        14.4494 
 115   0.0000       0.539618        14.6837 
 116   0.0000       0.546180        14.8623 
 117   0.0000       0.550510        14.9801 
 118   0.0000       0.554995        15.1022 
 119   0.0000       0.560934        15.2638 
 120   0.0000       0.573114        15.5952 
 121   0.0000       0.591584        16.0978 
 122   0.0000       0.594579        16.1793 
 123   0.0000       0.606057        16.4917 
 124   0.0000       0.614832        16.7304 
 125   0.0000       0.622354        16.9351 
 126   0.0000       0.641526        17.4568 
 127   0.0000       0.646036        17.5795 
 128   0.0000       0.659594        17.9485 
 129   0.0000       0.664991        18.0953 
 130   0.0000       0.671888        18.2830 
 131   0.0000       0.684928        18.6378 
 132   0.0000       0.691357        18.8128 
 133   0.0000       0.694146        18.8887 
 134   0.0000       0.702966        19.1287 
 135   0.0000       0.710224        19.3262 
 136   0.0000       0.720753        19.6127 
 137   0.0000       0.727956        19.8087 
 138   0.0000       0.731528        19.9059 
 139   0.0000       0.740484        20.1496 
 140   0.0000       0.746628        20.3168 
 141   0.0000       0.750736        20.4286 
 142   0.0000       0.754667        20.5355 
 143   0.0000       0.759015        20.6539 
 144   0.0000       0.763207        20.7679 
 145   0.0000       0.770519        20.9669 
 146   0.0000       0.776715        21.1355 
 147   0.0000       0.777354        21.1529 
 148   0.0000       0.783746        21.3268 
 149   0.0000       0.787285        21.4231 
 150   0.0000       0.792661        21.5694 
 151   0.0000       0.797735        21.7075 
 152   0.0000       0.798416        21.7260 
 153   0.0000       0.800425        21.7807 
 154   0.0000       0.801287        21.8041 
 155   0.0000       0.805813        21.9273 
 156   0.0000       0.810896        22.0656 
 157   0.0000       0.815031        22.1781 
 158   0.0000       0.822970        22.3942 
 159   0.0000       0.826553        22.4916 
 160   0.0000       0.828610        22.5476 
 161   0.0000       0.834602        22.7107 
 162   0.0000       0.839267        22.8376 
 163   0.0000       0.847229        23.0543 
 164   0.0000       0.856974        23.3195 
 165   0.0000       0.859166        23.3791 
 166   0.0000       0.866075        23.5671 
 167   0.0000       0.876072        23.8391 
 168   0.0000       0.890818        24.2404 
 169   0.0000       0.898209        24.4415 
 170   0.0000       0.907477        24.6937 
 171   0.0000       0.915349        24.9079 
 172   0.0000       0.921055        25.0632 
 173   0.0000       0.954411        25.9708 
 174   0.0000       0.959744        26.1160 
 175   0.0000       0.971229        26.4285 
 176   0.0000       0.984784        26.7973 
 177   0.0000       1.007296        27.4099 
 178   0.0000       1.017413        27.6852 
 179   0.0000       1.028562        27.9886 
 180   0.0000       1.053461        28.6661 
 181   0.0000       1.068897        29.0862 
 182   0.0000       1.078302        29.3421 
 183   0.0000       1.089460        29.6457 
 184   0.0000       1.099479        29.9183 
 185   0.0000       1.141550        31.0632 
 186   0.0000       1.142841        31.0983 
 187   0.0000       1.159740        31.5581 
 188   0.0000       1.168149        31.7869 
 189   0.0000       1.192778        32.4571 
 190   0.0000       1.206841        32.8398 
 191   0.0000       1.221710        33.2444 
 192   0.0000       1.246832        33.9280 
 193   0.0000       1.263913        34.3928 
 194   0.0000       1.277101        34.7517 
 195   0.0000       1.288843        35.0712 
 196   0.0000       1.296427        35.2776 
 197   0.0000       1.325435        36.0669 
 198   0.0000       1.344946        36.5978 
 199   0.0000       1.389786        37.8180 
 200   0.0000       1.412832        38.4451 
 201   0.0000       1.430939        38.9378 
 202   0.0000       1.448742        39.4223 
 203   0.0000       1.454154        39.5695 
 204   0.0000       1.467939        39.9446 
 205   0.0000       1.472596        40.0714 
 206   0.0000       1.478492        40.2318 
 207   0.0000       1.511458        41.1289 
 208   0.0000       1.536714        41.8161 
 209   0.0000       1.557998        42.3953 
 210   0.0000       1.568471        42.6803 
 211   0.0000       1.595789        43.4236 
 212   0.0000       1.615856        43.9697 
 213   0.0000       1.633088        44.4386 
 214   0.0000       1.637646        44.5626 
 215   0.0000       1.651496        44.9395 
 216   0.0000       1.671217        45.4761 
 217   0.0000       1.689646        45.9776 
 218   0.0000       1.757693        47.8293 
 219   0.0000       1.770454        48.1765 
 220   0.0000       1.796285        48.8794 
 221   0.0000       1.812530        49.3215 
 222   0.0000       1.823021        49.6069 
 223   0.0000       1.828970        49.7688 
 224   0.0000       1.832123        49.8546 
 225   0.0000       1.835698        49.9519 
 226   0.0000       1.852309        50.4039 
 227   0.0000       1.855610        50.4937 
 228   0.0000       1.861428        50.6520 
 229   0.0000       1.865566        50.7646 
 230   0.0000       1.869559        50.8733 
 231   0.0000       1.881512        51.1985 
 232   0.0000       1.884064        51.2680 
 233   0.0000       1.890539        51.4442 
 234   0.0000       1.895609        51.5822 
 235   0.0000       1.905466        51.8504 
 236   0.0000       1.910648        51.9914 
 237   0.0000       1.912882        52.0522 
 238   0.0000       1.922147        52.3043 
 239   0.0000       1.927697        52.4553 
 240   0.0000       1.935367        52.6640 
 241   0.0000       1.956971        53.2519 
 242   0.0000       1.962795        53.4104 
 243   0.0000       1.969578        53.5949 
 244   0.0000       1.980150        53.8826 
 245   0.0000       1.996373        54.3241 
 246   0.0000       2.010209        54.7006 
 247   0.0000       2.012624        54.7663 
 248   0.0000       2.029485        55.2251 
 249   0.0000       2.045383        55.6577 
 250   0.0000       2.048858        55.7522 
 251   0.0000       2.064451        56.1766 
 252   0.0000       2.072195        56.3873 
 253   0.0000       2.089734        56.8646 
 254   0.0000       2.100572        57.1595 
 255   0.0000       2.111313        57.4518 
 256   0.0000       2.126079        57.8535 
 257   0.0000       2.129508        57.9469 
 258   0.0000       2.158143        58.7260 
 259   0.0000       2.161781        58.8251 
 260   0.0000       2.168184        58.9993 
 261   0.0000       2.181606        59.3645 
 262   0.0000       2.196448        59.7684 
 263   0.0000       2.224153        60.5223 
 264   0.0000       2.226809        60.5945 
 265   0.0000       2.255255        61.3686 
 266   0.0000       2.259232        61.4768 
 267   0.0000       2.265209        61.6395 
 268   0.0000       2.282340        62.1056 
 269   0.0000       2.301903        62.6380 
 270   0.0000       2.316555        63.0367 
 271   0.0000       2.347512        63.8790 
 272   0.0000       2.355041        64.0839 
 273   0.0000       2.385000        64.8992 
 274   0.0000       2.408553        65.5401 
 275   0.0000       2.419589        65.8404 
 276   0.0000       2.441227        66.4292 
 277   0.0000       2.454591        66.7928 
 278   0.0000       2.467860        67.1539 
 279   0.0000       2.486559        67.6627 
 280   0.0000       2.493607        67.8545 
 281   0.0000       2.506038        68.1928 
 282   0.0000       2.508952        68.2721 
 283   0.0000       2.520886        68.5968 
 284   0.0000       2.527552        68.7782 
 285   0.0000       2.548089        69.3370 
 286   0.0000       2.578245        70.1576 
 287   0.0000       2.602283        70.8117 
 288   0.0000       2.604954        70.8844 
 289   0.0000       2.654923        72.2441 
 290   0.0000       2.659527        72.3694 
 291   0.0000       2.672622        72.7257 
 292   0.0000       2.706696        73.6529 
 293   0.0000       2.710735        73.7629 
 294   0.0000       2.750228        74.8375 
 295   0.0000       2.757265        75.0290 
 296   0.0000       2.772302        75.4382 
 297   0.0000       2.781367        75.6848 
 298   0.0000       2.797889        76.1344 
 299   0.0000       2.818870        76.7054 
 300   0.0000       2.836511        77.1854 
 301   0.0000       2.871579        78.1396 
 302   0.0000       2.885999        78.5320 
 303   0.0000       2.914854        79.3172 
 304   0.0000       2.962444        80.6122 
 305   0.0000       2.984446        81.2109 
 306   0.0000       2.998689        81.5985 
 307   0.0000       3.006228        81.8036 
 308   0.0000       3.012324        81.9695 
 309   0.0000       3.031193        82.4829 
 310   0.0000       3.076088        83.7046 
 311   0.0000       3.091831        84.1330 
 312   0.0000       3.101184        84.3875 
 313   0.0000       3.111458        84.6671 
 314   0.0000       3.142742        85.5184 
 315   0.0000       3.153228        85.8037 
 316   0.0000       3.154832        85.8473 
 317   0.0000       3.175363        86.4060 
 318   0.0000       3.262273        88.7709 
 319   0.0000       3.288147        89.4750 
 320   0.0000       3.389575        92.2350 
 321   0.0000       3.439431        93.5917 

                    ********************************
                    * MULLIKEN POPULATION ANALYSIS *
                    ********************************

-----------------------
MULLIKEN ATOMIC CHARGES
-----------------------
   0 S :    0.134224
   1 C :   -0.130330
   2 C :   -0.056631
   3 C :    0.038567
   4 C :   -0.199344
   5 H :    0.001443
   6 C :    0.084350
   7 H :    0.008800
   8 H :    0.023816
   9 C :   -0.098000
  10 H :    0.028607
  11 H :    0.021314
  12 C :   -0.036108
  13 H :    0.039715
  14 H :    0.026746
  15 H :    0.031100
  16 S :    0.111655
  17 C :   -0.090661
  18 C :   -0.058033
  19 C :    0.029083
  20 C :   -0.186173
  21 H :    0.034341
  22 C :    0.013317
  23 H :    0.041838
  24 H :    0.038616
  25 C :   -0.017081
  26 H :    0.021340
  27 H :    0.022989
  28 C :   -0.077426
  29 H :    0.036047
  30 H :    0.008626
  31 H :    0.037818
  32 H :    0.046709
  33 H :    0.068725
Sum of atomic charges:    0.0000000

--------------------------------
MULLIKEN REDUCED ORBITAL CHARGES
--------------------------------
  0 S s       :     5.839294  s :     5.839294
      pz      :     3.539851  p :     9.914951
      px      :     3.400445
      py      :     2.974655
      dz2     :     0.011334  d :     0.111530
      dxz     :     0.013243
      dyz     :     0.032487
      dx2y2   :     0.020114
      dxy     :     0.034351
  1 C s       :     3.188602  s :     3.188602
      pz      :     1.072905  p :     2.908285
      px      :     0.983826
      py      :     0.851554
      dz2     :     0.004890  d :     0.033444
      dxz     :     0.004701
      dyz     :     0.005116
      dx2y2   :     0.008542
      dxy     :     0.010195
  2 C s       :     3.062524  s :     3.062524
      pz      :     1.004539  p :     2.950130
      px      :     0.957703
      py      :     0.987888
      dz2     :     0.005434  d :     0.043978
      dxz     :     0.006724
      dyz     :     0.008189
      dx2y2   :     0.013018
      dxy     :     0.010612
  3 C s       :     3.200025  s :     3.200025
      pz      :     0.958179  p :     2.727354
      px      :     0.877435
      py      :     0.891740
      dz2     :     0.003509  d :     0.034054
      dxz     :     0.004415
      dyz     :     0.007493
      dx2y2   :     0.008156
      dxy     :     0.010481
  4 C s       :     3.066593  s :     3.066593
      pz      :     1.054032  p :     3.086364
      px      :     0.999692
      py      :     1.032641
      dz2     :     0.005932  d :     0.046387
      dxz     :     0.005568
      dyz     :     0.009198
      dx2y2   :     0.011403
      dxy     :     0.014286
  5 H s       :     0.973842  s :     0.973842
      pz      :     0.008015  p :     0.024715
      px      :     0.011194
      py      :     0.005505
  6 C s       :     2.934190  s :     2.934190
      pz      :     0.960435  p :     2.945143
      px      :     1.004227
      py      :     0.980481
      dz2     :     0.005745  d :     0.036318
      dxz     :     0.006786
      dyz     :     0.010839
      dx2y2   :     0.004988
      dxy     :     0.007959
  7 H s       :     0.967305  s :     0.967305
      pz      :     0.006136  p :     0.023895
      px      :     0.011925
      py      :     0.005834
  8 H s       :     0.952252  s :     0.952252
      pz      :     0.009146  p :     0.023932
      px      :     0.005508
      py      :     0.009278
  9 C s       :     3.061950  s :     3.061950
      pz      :     0.980797  p :     2.998517
      px      :     1.018445
      py      :     0.999275
      dz2     :     0.006174  d :     0.037532
      dxz     :     0.007160
      dyz     :     0.010280
      dx2y2   :     0.005134
      dxy     :     0.008784
 10 H s       :     0.949172  s :     0.949172
      pz      :     0.008789  p :     0.022221
      px      :     0.004951
      py      :     0.008481
 11 H s       :     0.956482  s :     0.956482
      pz      :     0.004937  p :     0.022205
      px      :     0.011227
      py      :     0.006041
 12 C s       :     3.007095  s :     3.007095
      pz      :     1.009262  p :     3.000614
      px      :     1.001282
      py      :     0.990071
      dz2     :     0.001671  d :     0.028398
      dxz     :     0.008340
      dyz     :     0.007607
      dx2y2   :     0.002578
      dxy     :     0.008202
 13 H s       :     0.937290  s :     0.937290
      pz      :     0.006976  p :     0.022995
      px      :     0.006887
      py      :     0.009132
 14 H s       :     0.949246  s :     0.949246
      pz      :     0.009016  p :     0.024008
      px      :     0.008242
      py      :     0.006750
 15 H s       :     0.944501  s :     0.944501
      pz      :     0.009138  p :     0.024400
      px      :     0.007745
      py      :     0.007517
 16 S s       :     5.852396  s :     5.852396
      pz      :     3.344708  p :     9.933960
      px      :     3.568161
      py      :     3.021091
      dz2     :     0.018818  d :     0.101989
      dxz     :     0.015399
      dyz     :     0.025740
      dx2y2   :     0.022954
      dxy     :     0.019079
 17 C s       :     3.142987  s :     3.142987
      pz      :     0.994087  p :     2.909994
      px      :     1.050257
      py      :     0.865650
      dz2     :     0.006541  d :     0.037681
      dxz     :     0.004629
      dyz     :     0.009186
      dx2y2   :     0.009729
      dxy     :     0.007596
 18 C s       :     3.177320  s :     3.177320
      pz      :     0.978231  p :     2.845191
      px      :     0.961812
      py      :     0.905149
      dz2     :     0.006421  d :     0.035522
      dxz     :     0.005027
      dyz     :     0.007671
      dx2y2   :     0.009564
      dxy     :     0.006839
 19 C s       :     3.034303  s :     3.034303
      pz      :     0.965656  p :     2.891841
      px      :     0.953187
      py      :     0.972998
      dz2     :     0.007331  d :     0.044772
      dxz     :     0.005745
      dyz     :     0.011135
      dx2y2   :     0.009577
      dxy     :     0.010985
 20 C s       :     3.062145  s :     3.062145
      pz      :     0.953214  p :     3.077488
      px      :     1.090589
      py      :     1.033684
      dz2     :     0.009265  d :     0.046541
      dxz     :     0.005732
      dyz     :     0.010771
      dx2y2   :     0.011074
      dxy     :     0.009699
 21 H s       :     0.942249  s :     0.942249
      pz      :     0.005705  p :     0.023410
      px      :     0.004892
      py      :     0.012813
 22 C s       :     2.985680  s :     2.985680
      pz      :     0.946944  p :     2.966738
      px      :     1.000577
      py      :     1.019218
      dz2     :     0.007545  d :     0.034265
      dxz     :     0.009527
      dyz     :     0.006764
      dx2y2   :     0.008394
      dxy     :     0.002035
 23 H s       :     0.936484  s :     0.936484
      pz      :     0.004908  p :     0.021678
      px      :     0.004135
      py      :     0.012634
 24 H s       :     0.938335  s :     0.938335
      pz      :     0.005525  p :     0.023049
      px      :     0.012199
      py      :     0.005326
 25 C s       :     3.018620  s :     3.018620
      pz      :     0.990739  p :     2.961995
      px      :     1.005158
      py      :     0.966098
      dz2     :     0.006516  d :     0.036466
      dxz     :     0.005707
      dyz     :     0.009650
      dx2y2   :     0.007773
      dxy     :     0.006821
 26 H s       :     0.952720  s :     0.952720
      pz      :     0.005110  p :     0.025940
      px      :     0.014517
      py      :     0.006313
 27 H s       :     0.952340  s :     0.952340
      pz      :     0.009471  p :     0.024670
      px      :     0.007490
      py      :     0.007709
 28 C s       :     3.038931  s :     3.038931
      pz      :     1.011253  p :     3.010770
      px      :     1.006822
      py      :     0.992696
      dz2     :     0.004496  d :     0.027724
      dxz     :     0.003261
      dyz     :     0.008562
      dx2y2   :     0.006837
      dxy     :     0.004568
 29 H s       :     0.943291  s :     0.943291
      pz      :     0.004749  p :     0.020662
      px      :     0.012399
      py      :     0.003514
 30 H s       :     0.966785  s :     0.966785
      pz      :     0.010976  p :     0.024589
      px      :     0.006779
      py      :     0.006834
 31 H s       :     0.937732  s :     0.937732
      pz      :     0.011714  p :     0.024450
      px      :     0.004902
      py      :     0.007834
 32 H s       :     0.929373  s :     0.929373
      pz      :     0.005279  p :     0.023918
      px      :     0.005547
      py      :     0.013092
 33 H s       :     0.909585  s :     0.909585
      pz      :     0.006274  p :     0.021691
      px      :     0.005191
      py      :     0.010226


                     *******************************
                     * LOEWDIN POPULATION ANALYSIS *
                     *******************************

----------------------
LOEWDIN ATOMIC CHARGES
----------------------
   0 S :    0.428579
   1 C :   -0.203044
   2 C :   -0.063124
   3 C :   -0.048948
   4 C :   -0.211741
   5 H :    0.027508
   6 C :   -0.030369
   7 H :    0.025376
   8 H :    0.029558
   9 C :   -0.041330
  10 H :    0.025109
  11 H :    0.017186
  12 C :   -0.063862
  13 H :    0.031857
  14 H :    0.021526
  15 H :    0.025558
  16 S :    0.387866
  17 C :   -0.188602
  18 C :   -0.080398
  19 C :   -0.046667
  20 C :   -0.190453
  21 H :    0.034479
  22 C :   -0.038640
  23 H :    0.042857
  24 H :    0.038732
  25 C :   -0.028219
  26 H :    0.016242
  27 H :    0.022657
  28 C :   -0.068170
  29 H :    0.030046
  30 H :    0.016915
  31 H :    0.018702
  32 H :    0.025420
  33 H :    0.037391

-------------------------------
LOEWDIN REDUCED ORBITAL CHARGES
-------------------------------
  0 S s       :     5.497706  s :     5.497706
      pz      :     3.524412  p :     9.934804
      px      :     3.422475
      py      :     2.987917
      dz2     :     0.012868  d :     0.138911
      dxz     :     0.014995
      dyz     :     0.041151
      dx2y2   :     0.025267
      dxy     :     0.044630
  1 C s       :     2.929580  s :     2.929580
      pz      :     1.099341  p :     3.193648
      px      :     1.071857
      py      :     1.022450
      dz2     :     0.009714  d :     0.079815
      dxz     :     0.010962
      dyz     :     0.010996
      dx2y2   :     0.022304
      dxy     :     0.025838
  2 C s       :     2.857747  s :     2.857747
      pz      :     0.998363  p :     3.095179
      px      :     1.041448
      py      :     1.055368
      dz2     :     0.011897  d :     0.110198
      dxz     :     0.015979
      dyz     :     0.018561
      dx2y2   :     0.036697
      dxy     :     0.027064
  3 C s       :     2.862898  s :     2.862898
      pz      :     1.020074  p :     3.094975
      px      :     1.038100
      py      :     1.036800
      dz2     :     0.007962  d :     0.091074
      dxz     :     0.011023
      dyz     :     0.018472
      dx2y2   :     0.024087
      dxy     :     0.029530
  4 C s       :     2.903015  s :     2.903015
      pz      :     1.073454  p :     3.196634
      px      :     1.061961
      py      :     1.061219
      dz2     :     0.012656  d :     0.112093
      dxz     :     0.012106
      dyz     :     0.021605
      dx2y2   :     0.028675
      dxy     :     0.037050
  5 H s       :     0.898247  s :     0.898247
      pz      :     0.023932  p :     0.074245
      px      :     0.032732
      py      :     0.017582
  6 C s       :     2.814123  s :     2.814123
      pz      :     1.035777  p :     3.123937
      px      :     1.047198
      py      :     1.040961
      dz2     :     0.012497  d :     0.092309
      dxz     :     0.017681
      dyz     :     0.028784
      dx2y2   :     0.012104
      dxy     :     0.021243
  7 H s       :     0.904401  s :     0.904401
      pz      :     0.018124  p :     0.070223
      px      :     0.034578
      py      :     0.017521
  8 H s       :     0.899468  s :     0.899468
      pz      :     0.027052  p :     0.070974
      px      :     0.016375
      py      :     0.027547
  9 C s       :     2.834963  s :     2.834963
      pz      :     1.027626  p :     3.116242
      px      :     1.046481
      py      :     1.042135
      dz2     :     0.013237  d :     0.090125
      dxz     :     0.017318
      dyz     :     0.026572
      dx2y2   :     0.011219
      dxy     :     0.021780
 10 H s       :     0.908742  s :     0.908742
      pz      :     0.026632  p :     0.066149
      px      :     0.014940
      py      :     0.024577
 11 H s       :     0.916773  s :     0.916773
      pz      :     0.015108  p :     0.066041
      px      :     0.032844
      py      :     0.018090
 12 C s       :     2.831642  s :     2.831642
      pz      :     1.058858  p :     3.159264
      px      :     1.055108
      py      :     1.045298
      dz2     :     0.003560  d :     0.072956
      dxz     :     0.021752
      dyz     :     0.020500
      dx2y2   :     0.005186
      dxy     :     0.021959
 13 H s       :     0.904490  s :     0.904490
      pz      :     0.018997  p :     0.063653
      px      :     0.019267
      py      :     0.025390
 14 H s       :     0.910858  s :     0.910858
      pz      :     0.025288  p :     0.067616
      px      :     0.023717
      py      :     0.018612
 15 H s       :     0.907373  s :     0.907373
      pz      :     0.024513  p :     0.067069
      px      :     0.021573
      py      :     0.020984
 16 S s       :     5.528777  s :     5.528777
      pz      :     3.362557  p :     9.957778
      px      :     3.550370
      py      :     3.044851
      dz2     :     0.022279  d :     0.125579
      dxz     :     0.017888
      dyz     :     0.031995
      dx2y2   :     0.030113
      dxy     :     0.023304
 17 C s       :     2.940082  s :     2.940082
      pz      :     1.059214  p :     3.160928
      px      :     1.089606
      py      :     1.012108
      dz2     :     0.013156  d :     0.087592
      dxz     :     0.012120
      dyz     :     0.022313
      dx2y2   :     0.022529
      dxy     :     0.017474
 18 C s       :     2.871059  s :     2.871059
      pz      :     1.047457  p :     3.117107
      px      :     1.037602
      py      :     1.032049
      dz2     :     0.014053  d :     0.092232
      dxz     :     0.014405
      dyz     :     0.020555
      dx2y2   :     0.025195
      dxy     :     0.018024
 19 C s       :     2.851659  s :     2.851659
      pz      :     1.010216  p :     3.081726
      px      :     1.004954
      py      :     1.066556
      dz2     :     0.016054  d :     0.113282
      dxz     :     0.014814
      dyz     :     0.028630
      dx2y2   :     0.024705
      dxy     :     0.029079
 20 C s       :     2.894159  s :     2.894159
      pz      :     1.025668  p :     3.182277
      px      :     1.080936
      py      :     1.075673
      dz2     :     0.021545  d :     0.114017
      dxz     :     0.013000
      dyz     :     0.025828
      dx2y2   :     0.028200
      dxy     :     0.025445
 21 H s       :     0.898382  s :     0.898382
      pz      :     0.017009  p :     0.067139
      px      :     0.014309
      py      :     0.035821
 22 C s       :     2.837673  s :     2.837673
      pz      :     1.019250  p :     3.115761
      px      :     1.040857
      py      :     1.055654
      dz2     :     0.016908  d :     0.085206
      dxz     :     0.024156
      dyz     :     0.017821
      dx2y2   :     0.022263
      dxy     :     0.004058
 23 H s       :     0.896569  s :     0.896569
      pz      :     0.013828  p :     0.060575
      px      :     0.011505
      py      :     0.035242
 24 H s       :     0.894256  s :     0.894256
      pz      :     0.017186  p :     0.067011
      px      :     0.035366
      py      :     0.014459
 25 C s       :     2.817693  s :     2.817693
      pz      :     1.032952  p :     3.121596
      px      :     1.067818
      py      :     1.020826
      dz2     :     0.016247  d :     0.088931
      dxz     :     0.013182
      dyz     :     0.023357
      dx2y2   :     0.017928
      dxy     :     0.018217
 26 H s       :     0.904332  s :     0.904332
      pz      :     0.018320  p :     0.079426
      px      :     0.040461
      py      :     0.020645
 27 H s       :     0.904851  s :     0.904851
      pz      :     0.028347  p :     0.072492
      px      :     0.021307
      py      :     0.022838
 28 C s       :     2.847680  s :     2.847680
      pz      :     1.070496  p :     3.151915
      px      :     1.042226
      py      :     1.039193
      dz2     :     0.012705  d :     0.068576
      dxz     :     0.007824
      dyz     :     0.020512
      dx2y2   :     0.016339
      dxy     :     0.011196
 29 H s       :     0.914144  s :     0.914144
      pz      :     0.011484  p :     0.055810
      px      :     0.033970
      py      :     0.010356
 30 H s       :     0.914681  s :     0.914681
      pz      :     0.029854  p :     0.068404
      px      :     0.018338
      py      :     0.020212
 31 H s       :     0.908589  s :     0.908589
      pz      :     0.033140  p :     0.072708
      px      :     0.014516
      py      :     0.025053
 32 H s       :     0.898409  s :     0.898409
      pz      :     0.017507  p :     0.076171
      px      :     0.017584
      py      :     0.041081
 33 H s       :     0.895806  s :     0.895806
      pz      :     0.018634  p :     0.066802
      px      :     0.015730
      py      :     0.032438


                      *****************************
                      * MAYER POPULATION ANALYSIS *
                      *****************************

  NA   - Mulliken gross atomic population
  ZA   - Total nuclear charge
  QA   - Mulliken gross atomic charge
  VA   - Mayer's total valence
  BVA  - Mayer's bonded valence
  FA   - Mayer's free valence

  ATOM       NA         ZA         QA         VA         BVA        FA
  0 S     15.8658    16.0000     0.1342     2.5184     2.5184     0.0000
  1 C      6.1303     6.0000    -0.1303     3.8293     3.8293    -0.0000
  2 C      6.0566     6.0000    -0.0566     3.9917     3.9917     0.0000
  3 C      5.9614     6.0000     0.0386     3.9256     3.9256    -0.0000
  4 C      6.1993     6.0000    -0.1993     3.9282     3.9282     0.0000
  5 H      0.9986     1.0000     0.0014     1.0054     1.0054     0.0000
  6 C      5.9156     6.0000     0.0844     3.9653     3.9653     0.0000
  7 H      0.9912     1.0000     0.0088     0.9920     0.9920    -0.0000
  8 H      0.9762     1.0000     0.0238     0.9855     0.9855    -0.0000
  9 C      6.0980     6.0000    -0.0980     4.0897     4.0897     0.0000
 10 H      0.9714     1.0000     0.0286     0.9754     0.9754     0.0000
 11 H      0.9787     1.0000     0.0213     0.9817     0.9817     0.0000
 12 C      6.0361     6.0000    -0.0361     4.0002     4.0002    -0.0000
 13 H      0.9603     1.0000     0.0397     0.9861     0.9861    -0.0000
 14 H      0.9733     1.0000     0.0267     0.9955     0.9955    -0.0000
 15 H      0.9689     1.0000     0.0311     0.9872     0.9872     0.0000
 16 S     15.8883    16.0000     0.1117     2.4436     2.4436    -0.0000
 17 C      6.0907     6.0000    -0.0907     3.8555     3.8555    -0.0000
 18 C      6.0580     6.0000    -0.0580     3.9538     3.9538     0.0000
 19 C      5.9709     6.0000     0.0291     3.9973     3.9973     0.0000
 20 C      6.1862     6.0000    -0.1862     3.9561     3.9561     0.0000
 21 H      0.9657     1.0000     0.0343     0.9965     0.9965     0.0000
 22 C      5.9867     6.0000     0.0133     3.9793     3.9793     0.0000
 23 H      0.9582     1.0000     0.0418     0.9903     0.9903     0.0000
 24 H      0.9614     1.0000     0.0386     0.9876     0.9876     0.0000
 25 C      6.0171     6.0000    -0.0171     4.0568     4.0568     0.0000
 26 H      0.9787     1.0000     0.0213     0.9879     0.9879     0.0000
 27 H      0.9770     1.0000     0.0230     0.9766     0.9766    -0.0000
 28 C      6.0774     6.0000    -0.0774     4.0083     4.0083    -0.0000
 29 H      0.9640     1.0000     0.0360     0.9864     0.9864    -0.0000
 30 H      0.9914     1.0000     0.0086     1.0004     1.0004    -0.0000
 31 H      0.9622     1.0000     0.0378     0.9863     0.9863    -0.0000
 32 H      0.9533     1.0000     0.0467     1.0044     1.0044    -0.0000
 33 H      0.9313     1.0000     0.0687     0.9895     0.9895     0.0000

  Mayer bond orders larger than 0.100000
B(  0-S ,  1-C ) :   1.1636 B(  0-S ,  4-C ) :   1.1623 B(  1-C ,  2-C ) :   1.5512 
B(  1-C ,  4-C ) :   0.1126 B(  1-C , 32-H ) :   0.9730 B(  2-C ,  3-C ) :   1.2797 
B(  2-C ,  6-C ) :   1.0384 B(  3-C ,  4-C ) :   1.5261 B(  3-C ,  5-H ) :   1.0038 
B(  4-C , 20-C ) :   1.0770 B(  6-C ,  7-H ) :   0.9465 B(  6-C ,  8-H ) :   0.9220 
B(  6-C ,  9-C ) :   1.0718 B(  9-C , 10-H ) :   0.9590 B(  9-C , 11-H ) :   0.9561 
B(  9-C , 12-C ) :   1.0769 B( 12-C , 13-H ) :   0.9738 B( 12-C , 14-H ) :   0.9755 
B( 12-C , 15-H ) :   0.9779 B( 16-S , 17-C ) :   1.1516 B( 16-S , 20-C ) :   1.1125 
B( 17-C , 18-C ) :   1.6567 B( 17-C , 33-H ) :   0.9540 B( 18-C , 19-C ) :   1.1958 
B( 18-C , 21-H ) :   0.9789 B( 19-C , 20-C ) :   1.6390 B( 19-C , 22-C ) :   1.0497 
B( 22-C , 23-H ) :   0.9363 B( 22-C , 24-H ) :   0.9308 B( 22-C , 25-C ) :   1.0561 
B( 25-C , 26-H ) :   0.9643 B( 25-C , 27-H ) :   0.9591 B( 25-C , 28-C ) :   1.0672 
B( 28-C , 29-H ) :   0.9737 B( 28-C , 30-H ) :   0.9808 B( 28-C , 31-H ) :   0.9734 


-------
TIMINGS
-------

Total SCF time: 0 days 0 hours 0 min 20 sec 

Total time                  ....      20.070 sec
Sum of individual times     ....      19.165 sec  ( 95.5%)

Fock matrix formation       ....      17.508 sec  ( 87.2%)
  XC integration            ....       1.595 sec  (  9.1% of F)
    Basis function eval.    ....       0.154 sec  (  9.6% of XC)
    Density eval.           ....       0.104 sec  (  6.5% of XC)
    XC-Functional eval.     ....       0.122 sec  (  7.7% of XC)
    XC-Potential eval.      ....       0.121 sec  (  7.6% of XC)
Diagonalization             ....       0.135 sec  (  0.7%)
Density matrix formation    ....       0.026 sec  (  0.1%)
Population analysis         ....       0.056 sec  (  0.3%)
Initial guess               ....       0.163 sec  (  0.8%)
Orbital Transformation      ....       0.000 sec  (  0.0%)
Orbital Orthonormalization  ....       0.000 sec  (  0.0%)
DIIS solution               ....       0.151 sec  (  0.8%)
SOSCF solution              ....       0.153 sec  (  0.8%)
Grid generation             ....       0.973 sec  (  4.8%)


-------------------------------------------------------------------------------
                          DFT DISPERSION CORRECTION                            
                                                                               
                              DFTD3 V3.1  Rev 1                                
                              USING zero damping                               
-------------------------------------------------------------------------------
The omegaB97X-D3 functional is recognized. Fit by Chai et al.
Active option DFTDOPT                   ...         3   

molecular C6(AA) [au] = 14164.882922 


            DFT-D V3
 parameters
 s6 scaling factor         :     1.0000 
 rs6 scaling factor        :     1.2810 
 s8 scaling factor         :     1.0000 
 rs8 scaling factor        :     1.0940 
 Damping factor alpha6     :    14.0000 
 Damping factor alpha8     :    16.0000 
 ad hoc parameters k1-k3   :    16.0000     1.3333    -4.0000 

 Edisp/kcal,au: -8.679436140107  -0.013831560435 
 E6   /kcal   :  -3.782722316 
 E8   /kcal   :  -4.896713824 
 % E8         :  56.417418659 

-------------------------   ----------------
Dispersion correction           -0.013831560
-------------------------   ----------------


-------------------------   --------------------
FINAL SINGLE POINT ENERGY     -1339.869136826489
-------------------------   --------------------


                            ***************************************
                            *     ORCA property calculations      *
                            ***************************************

                                    ---------------------
                                    Active property flags
                                    ---------------------
   (+) Dipole Moment


------------------------------------------------------------------------------
                       ORCA ELECTRIC PROPERTIES CALCULATION
------------------------------------------------------------------------------

Dipole Moment Calculation                       ... on
Quadrupole Moment Calculation                   ... off
Polarizability Calculation                      ... off
GBWName                                         ... config_5374.gbw
Electron density file                           ... config_5374.scfp
The origin for moment calculation is the CENTER OF MASS  = (-193.831721, 46.538112 -208.903063)

-------------
DIPOLE MOMENT
-------------
                                X             Y             Z
Electronic contribution:      1.23231       5.46237     -22.68056
Nuclear contribution   :     -1.26371      -5.51909      23.17770
                        -----------------------------------------
Total Dipole Moment    :     -0.03140      -0.05671       0.49715
                        -----------------------------------------
Magnitude (a.u.)       :      0.50136
Magnitude (Debye)      :      1.27434



--------------------
Rotational spectrum 
--------------------
 
Rotational constants in cm-1:     0.020863     0.007155     0.006236 
Rotational constants in MHz :   625.457822   214.512852   186.957356 

 Dipole components along the rotational axes: 
x,y,z [a.u.] :    -0.111222    -0.463311    -0.155981 
x,y,z [Debye]:    -0.282704    -1.177643    -0.396471 

 

Timings for individual modules:

Sum of individual times         ...       21.246 sec (=   0.354 min)
GTO integral calculation        ...        0.772 sec (=   0.013 min)   3.6 %
SCF iterations                  ...       20.474 sec (=   0.341 min)  96.4 %
                             ****ORCA TERMINATED NORMALLY****
TOTAL RUN TIME: 0 days 0 hours 0 minutes 21 seconds 951 msec
