
                                 *****************
                                 * O   R   C   A *
                                 *****************

           --- An Ab Initio, DFT and Semiempirical electronic structure package ---

                  #######################################################
                  #                        -***-                        #
                  #          Department of theory and spectroscopy      #
                  #               Directorship: Frank Neese             #
                  #        Max Planck Institute fuer Kohlenforschung    #
                  #                Kaiser Wilhelm Platz 1               #
                  #                 D-45470 Muelheim/Ruhr               #
                  #                      Germany                        #
                  #                                                     #
                  #                  All rights reserved                #
                  #                        -***-                        #
                  #######################################################


                         Program Version 4.2.1 -  RELEASE  -


 With contributions from (in alphabetic order):
   Daniel Aravena         : Magnetic Suceptibility
   Michael Atanasov       : Ab Initio Ligand Field Theory (pilot matlab implementation)
   Alexander A. Auer      : GIAO ZORA, VPT2
   Ute Becker             : Parallelization
   Giovanni Bistoni       : ED, misc. LED, open-shell LED, HFLD
   Martin Brehm           : Molecular dynamics
   Dmytro Bykov           : SCF Hessian
   Vijay G. Chilkuri      : MRCI spin determinant printing, contributions to CSF-ICE
   Dipayan Datta          : RHF DLPNO-CCSD density
   Achintya Kumar Dutta   : EOM-CC, STEOM-CC
   Dmitry Ganyushin       : Spin-Orbit,Spin-Spin,Magnetic field MRCI
   Miquel Garcia          : C-PCM Hessian, Gaussian charge scheme
   Yang Guo               : DLPNO-NEVPT2, CIM, IAO-localization
   Andreas Hansen         : Spin unrestricted coupled pair/coupled cluster methods
   Benjamin Helmich-Paris : CASSCF linear response (MC-RPA)
   Lee Huntington         : MR-EOM, pCC
   Robert Izsak           : Overlap fitted RIJCOSX, COSX-SCS-MP3, EOM
   Christian Kollmar      : KDIIS, OOCD, Brueckner-CCSD(T), CCSD density
   Simone Kossmann        : Meta GGA functionals, TD-DFT gradient, OOMP2, MP2 Hessian
   Martin Krupicka        : AUTO-CI
   Lucas Lang             : DCDCAS
   Dagmar Lenk            : GEPOL surface, SMD
   Dimitrios Liakos       : Extrapolation schemes; Compound Job, initial MDCI parallelization
   Dimitrios Manganas     : Further ROCIS development; embedding schemes
   Dimitrios Pantazis     : SARC Basis sets
   Taras Petrenko         : DFT Hessian,TD-DFT gradient, ASA, ECA, R-Raman, ABS, FL, XAS/XES, NRVS
   Peter Pinski           : DLPNO-MP2, DLPNO-MP2 Gradient
   Christoph Reimann      : Effective Core Potentials
   Marius Retegan         : Local ZFS, SOC
   Christoph Riplinger    : Optimizer, TS searches, QM/MM, DLPNO-CCSD(T), (RO)-DLPNO pert. Triples
   Tobias Risthaus        : Range-separated hybrids, TD-DFT gradient, RPA, STAB
   Michael Roemelt        : Original ROCIS implementation
   Masaaki Saitow         : Open-shell DLPNO-CCSD energy and density
   Barbara Sandhoefer     : DKH picture change effects
   Avijit Sen             : IP-ROCIS
   Kantharuban Sivalingam : CASSCF convergence, NEVPT2, FIC-MRCI
   Bernardo de Souza      : ESD, SOC TD-DFT
   Georgi Stoychev        : AutoAux, RI-MP2 NMR
   Willem Van den Heuvel  : Paramagnetic NMR
   Boris Wezisla          : Elementary symmetry handling
   Frank Wennmohs         : Technical directorship


 We gratefully acknowledge several colleagues who have allowed us to
 interface, adapt or use parts of their codes:
   Stefan Grimme, W. Hujo, H. Kruse,             : VdW corrections, initial TS optimization,
                  C. Bannwarth                     DFT functionals, gCP, sTDA/sTD-DF
   Ed Valeev, F. Pavosevic, A. Kumar             : LibInt (2-el integral package), F12 methods
   Garnet Chan, S. Sharma, J. Yang, R. Olivares  : DMRG
   Ulf Ekstrom                                   : XCFun DFT Library
   Mihaly Kallay                                 : mrcc  (arbitrary order and MRCC methods)
   Andreas Klamt, Michael Diedenhofen            : otool_cosmo (COSMO solvation model)
   Jiri Pittner, Ondrej Demel                    : Mk-CCSD
   Frank Weinhold                                : gennbo (NPA and NBO analysis)
   Christopher J. Cramer and Donald G. Truhlar   : smd solvation model
   Lars Goerigk                                  : TD-DFT with DH, B97 family of functionals
   V. Asgeirsson, H. Jonsson                     : NEB implementation
   FAccTs GmbH                                   : IRC, NEB, NEB-TS, Multilevel, MM, QM/MM, CI optimization
   S Lehtola, MJT Oliveira, MAL Marques          : LibXC Library


 Your calculation uses the libint2 library for the computation of 2-el integrals
 For citations please refer to: http://libint.valeyev.net

 Your ORCA version has been built with support for libXC version: 4.2.3
 For citations please refer to: https://tddft.org/programs/libxc/

 This ORCA versions uses:
   CBLAS   interface :  Fast vector & matrix operations
   LAPACKE interface :  Fast linear algebra routines
   SCALAPACK package :  Parallel linear algebra routines


Your calculation utilizes the atom-pairwise dispersion correction
with the zero-damping scheme (D30)
Cite in your paper:
S.Grimme, J.Antony, S.Ehrlich and H.Krieg, J.Chem.Phys., 132, (2010), 154104 
   

XCFun DFT library Copyright 2009-2010 Ulf Ekstrom and contributors.
See http://admol.org/xcfun for more information. This is free soft-
ware; see the source code for copying conditions. There is ABSOLUTELY
NO WARRANTY; not even for MERCHANTABILITY or FITNESS FOR A PARTICULAR
PURPOSE. For details see the documentation. Scientific users of this 
library should cite U. Ekstrom, L. Visscher, R. Bast, A. J. Thorvald-
sen and K. Ruud; J.Chem.Theor.Comp. 2010, DOI: 10.1021/ct100117s
XCFun Version 0.99 
----- Orbital basis set information -----
Your calculation utilizes the basis: def2-SVP
   F. Weigend and R. Ahlrichs, Phys. Chem. Chem. Phys. 7, 3297 (2005).

================================================================================
                                        WARNINGS
                       Please study these warnings very carefully!
================================================================================


INFO   : the flag for use of LIBINT has been found!

================================================================================
                                       INPUT FILE
================================================================================
NAME = config_9379.inp
|  1> ! wB97X-D3 SP def2-SVP
|  2> %pal
|  3> nprocs 24
|  4> end
|  5> 
|  6> * xyz 0 1
|  7> S 	 45.1784 	 -31.9661 	 -124.36 	 
|  8> C 	 44.1304 	 -32.7399 	 -125.518 	 
|  9> C 	 43.5791 	 -33.91 	 -124.948 	 
| 10> C 	 44.0289 	 -34.2025 	 -123.623 	 
| 11> C 	 44.8502 	 -33.2404 	 -123.112 	 
| 12> H 	 43.7098 	 -35.0655 	 -123.087 	 
| 13> C 	 42.6472 	 -34.9731 	 -125.592 	 
| 14> H 	 42.1002 	 -35.5024 	 -124.767 	 
| 15> H 	 43.3063 	 -35.761 	 -125.934 	 
| 16> C 	 41.5869 	 -34.5334 	 -126.673 	 
| 17> H 	 42.1262 	 -34.2094 	 -127.513 	 
| 18> H 	 40.9753 	 -35.4453 	 -126.871 	 
| 19> C 	 40.6267 	 -33.4952 	 -126.148 	 
| 20> H 	 41.1252 	 -32.761 	 -125.596 	 
| 21> H 	 40.202 	 -33.0035 	 -127.034 	 
| 22> H 	 39.8033 	 -33.8968 	 -125.479 	 
| 23> S 	 47.2181 	 -32.9865 	 -121.814 	 
| 24> C 	 47.2846 	 -33.2244 	 -120.073 	 
| 25> C 	 46.0366 	 -33.3621 	 -119.53 	 
| 26> C 	 44.9756 	 -33.4583 	 -120.535 	 
| 27> C 	 45.4819 	 -33.2403 	 -121.822 	 
| 28> H 	 45.8882 	 -33.5259 	 -118.434 	 
| 29> C 	 43.5224 	 -33.7658 	 -120.217 	 
| 30> H 	 43.494 	 -34.006 	 -119.153 	 
| 31> H 	 43.3159 	 -34.6561 	 -120.788 	 
| 32> C 	 42.3685 	 -32.7228 	 -120.539 	 
| 33> H 	 42.3076 	 -32.5163 	 -121.642 	 
| 34> H 	 42.5784 	 -31.7157 	 -120.19 	 
| 35> C 	 40.926 	 -33.3246 	 -120.128 	 
| 36> H 	 40.6485 	 -34.1156 	 -120.779 	 
| 37> H 	 40.0756 	 -32.7213 	 -120.355 	 
| 38> H 	 40.857 	 -33.5879 	 -119.084 	 
| 39> H 	 43.9699 	 -32.4131 	 -126.484 	 
| 40> H 	 48.1341 	 -33.3834 	 -119.552 	 
| 41> *
| 42> 
| 43>                          ****END OF INPUT****
================================================================================

                       ****************************
                       * Single Point Calculation *
                       ****************************

---------------------------------
CARTESIAN COORDINATES (ANGSTROEM)
---------------------------------
  S     45.178400  -31.966100  -124.360000
  C     44.130400  -32.739900  -125.518000
  C     43.579100  -33.910000  -124.948000
  C     44.028900  -34.202500  -123.623000
  C     44.850200  -33.240400  -123.112000
  H     43.709800  -35.065500  -123.087000
  C     42.647200  -34.973100  -125.592000
  H     42.100200  -35.502400  -124.767000
  H     43.306300  -35.761000  -125.934000
  C     41.586900  -34.533400  -126.673000
  H     42.126200  -34.209400  -127.513000
  H     40.975300  -35.445300  -126.871000
  C     40.626700  -33.495200  -126.148000
  H     41.125200  -32.761000  -125.596000
  H     40.202000  -33.003500  -127.034000
  H     39.803300  -33.896800  -125.479000
  S     47.218100  -32.986500  -121.814000
  C     47.284600  -33.224400  -120.073000
  C     46.036600  -33.362100  -119.530000
  C     44.975600  -33.458300  -120.535000
  C     45.481900  -33.240300  -121.822000
  H     45.888200  -33.525900  -118.434000
  C     43.522400  -33.765800  -120.217000
  H     43.494000  -34.006000  -119.153000
  H     43.315900  -34.656100  -120.788000
  C     42.368500  -32.722800  -120.539000
  H     42.307600  -32.516300  -121.642000
  H     42.578400  -31.715700  -120.190000
  C     40.926000  -33.324600  -120.128000
  H     40.648500  -34.115600  -120.779000
  H     40.075600  -32.721300  -120.355000
  H     40.857000  -33.587900  -119.084000
  H     43.969900  -32.413100  -126.484000
  H     48.134100  -33.383400  -119.552000

----------------------------
CARTESIAN COORDINATES (A.U.)
----------------------------
  NO LB      ZA    FRAG     MASS         X           Y           Z
   0 S    16.0000    0    32.060   85.374803  -60.407175  -235.006342
   1 C     6.0000    0    12.011   83.394370  -61.869445  -237.194645
   2 C     6.0000    0    12.011   82.352564  -64.080613  -236.117501
   3 C     6.0000    0    12.011   83.202563  -64.633358  -233.613614
   4 C     6.0000    0    12.011   84.754595  -62.815253  -232.647964
   5 H     1.0000    0     1.008   82.599551  -66.264192  -232.600721
   6 C     6.0000    0    12.011   80.591528  -66.089581  -237.334485
   7 H     1.0000    0     1.008   79.557848  -67.089813  -235.775461
   8 H     1.0000    0     1.008   81.837047  -67.578496  -237.980771
   9 C     6.0000    0    12.011   78.587852  -65.258668  -239.377279
  10 H     1.0000    0     1.008   79.606981  -64.646397  -240.964649
  11 H     1.0000    0     1.008   77.432095  -66.981910  -239.751444
  12 C     6.0000    0    12.011   76.773337  -63.296755  -238.385172
  13 H     1.0000    0     1.008   77.715365  -61.909318  -237.342044
  14 H     1.0000    0     1.008   75.970770  -62.367576  -240.059470
  15 H     1.0000    0     1.008   75.217336  -64.055669  -237.120946
  16 S    16.0000    0    32.060   89.229278  -62.335451  -230.195099
  17 C     6.0000    0    12.011   89.354944  -62.785017  -226.905086
  18 C     6.0000    0    12.011   86.996566  -63.045232  -225.878965
  19 C     6.0000    0    12.011   84.991567  -63.227024  -227.778140
  20 C     6.0000    0    12.011   85.948335  -62.815064  -230.210217
  21 H     1.0000    0     1.008   86.716131  -63.354769  -223.807825
  22 C     6.0000    0    12.011   82.245417  -63.808115  -227.177207
  23 H     1.0000    0     1.008   82.191748  -64.262027  -225.166538
  24 H     1.0000    0     1.008   81.855188  -65.490538  -228.256240
  25 C     6.0000    0    12.011   80.064862  -61.837130  -227.785698
  26 H     1.0000    0     1.008   79.949777  -61.446902  -229.870066
  27 H     1.0000    0     1.008   80.461515  -59.933987  -227.126184
  28 C     6.0000    0    12.011   77.338932  -62.974368  -227.009021
  29 H     1.0000    0     1.008   76.814533  -64.469141  -228.239233
  30 H     1.0000    0     1.008   75.731909  -61.834296  -227.437989
  31 H     1.0000    0     1.008   77.208541  -63.471932  -225.036147
  32 H     1.0000    0     1.008   83.091069  -61.251882  -239.020120
  33 H     1.0000    0     1.008   90.960267  -63.085483  -225.920539

--------------------------------
INTERNAL COORDINATES (ANGSTROEM)
--------------------------------
 S      0   0   0     0.000000000000     0.00000000     0.00000000
 C      1   0   0     1.742995823288     0.00000000     0.00000000
 C      2   1   0     1.413494145725   109.51778914     0.00000000
 C      3   2   1     1.429510856902   114.86193987   357.91155460
 C      4   3   2     1.364291427812   113.09739423     4.09774752
 H      4   3   2     1.064842622175   122.55431511   181.44860027
 C      3   2   1     1.553497737366   129.29305720   183.18256147
 H      7   3   2     1.122493870807   108.07902408   202.38680757
 H      7   3   2     1.082664869662   105.29422635    95.42380617
 C      7   3   2     1.576747658949   119.78619281   326.42815633
 H     10   7   3     1.049485821724   106.81449015    66.48864385
 H     10   7   3     1.115715093561   105.21051478   186.92019914
 C     10   7   3     1.508465538221   112.41843094   301.80829462
 H     13  10   7     1.045110467845   111.32794825    43.40008719
 H     13  10   7     1.098696946387   105.86709528   159.58215586
 H     13  10   7     1.134385789756   115.06414709   282.16790334
 S      5   4   3     2.712235170482   140.42909447   227.38511005
 C     17   5   4     1.758436709125   119.61556720   278.59141725
 C     18  17   5     1.367959900728   111.84657660   352.39957273
 C     19  18  17     1.464582001801   113.27473439     7.70579249
 C     20  19  18     1.400083101105   111.01294624   353.57939331
 H     19  18  17     1.118064846062   121.66453837   179.73114495
 C     20  19  18     1.519036039730   124.24173880   173.10281644
 H     23  20  19     1.091145544829   105.87843097   353.34152041
 H     23  20  19     1.077644347640   103.86489796   238.29154916
 C     23  20  19     1.588401148955   121.30592572   117.84194133
 H     26  23  20     1.123814958078   111.03804731    61.75786972
 H     26  23  20     1.086328412590   113.78171322   311.17962762
 C     26  23  20     1.616134428196   110.63050652   178.72730102
 H     29  26  23     1.061361507687   110.78715711   290.06178960
 H     29  26  23     1.067089522955   116.53134081   183.31354398
 H     29  26  23     1.078899388266   113.20625757    58.55004405
 H      2   1   3     1.032334485523   125.07337368   182.34768208
 H     18  17   5     1.009144315745   124.35444865   163.56516036

---------------------------
INTERNAL COORDINATES (A.U.)
---------------------------
 S      0   0   0     0.000000000000     0.00000000     0.00000000
 C      1   0   0     3.293784758583     0.00000000     0.00000000
 C      2   1   0     2.671116827322   109.51778914     0.00000000
 C      3   2   1     2.701384025011   114.86193987   357.91155460
 C      4   3   2     2.578137165420   113.09739423     4.09774752
 H      4   3   2     2.012260931637   122.55431511   181.44860027
 C      3   2   1     2.935685273287   129.29305720   183.18256147
 H      7   3   2     2.121206002831   108.07902408   202.38680757
 H      7   3   2     2.045940098479   105.29422635    95.42380617
 C      7   3   2     2.979621257714   119.78619281   326.42815633
 H     10   7   3     1.983240784492   106.81449015    66.48864385
 H     10   7   3     2.108395970313   105.21051478   186.92019914
 C     10   7   3     2.850586749696   112.41843094   301.80829462
 H     13  10   7     1.974972563922   111.32794825    43.40008719
 H     13  10   7     2.076236332847   105.86709528   159.58215586
 H     13  10   7     2.143678472851   115.06414709   282.16790334
 S      5   4   3     5.125381683000   140.42909447   227.38511005
 C     17   5   4     3.322963804081   119.61556720   278.59141725
 C     18  17   5     2.585069574562   111.84657660   352.39957273
 C     19  18  17     2.767658884074   113.27473439     7.70579249
 C     20  19  18     2.645773625820   111.01294624   353.57939331
 H     19  18  17     2.112836359022   121.66453837   179.73114495
 C     20  19  18     2.870562102647   124.24173880   173.10281644
 H     23  20  19     2.061966251975   105.87843097   353.34152041
 H     23  20  19     2.036452686807   103.86489796   238.29154916
 C     23  20  19     3.001643162330   121.30592572   117.84194133
 H     26  23  20     2.123702495972   111.03804731    61.75786972
 H     26  23  20     2.052863191292   113.78171322   311.17962762
 C     26  23  20     3.054051464892   110.63050652   178.72730102
 H     29  26  23     2.005682578615   110.78715711   290.06178960
 H     29  26  23     2.016506958761   116.53134081   183.31354398
 H     29  26  23     2.038824369877   113.20625757    58.55004405
 H      2   1   3     1.950829456241   125.07337368   182.34768208
 H     18  17   5     1.907006386361   124.35444865   163.56516036

---------------------
BASIS SET INFORMATION
---------------------
There are 3 groups of distinct atoms

 Group   1 Type S   : 10s7p1d contracted to 4s3p1d pattern {5311/511/1}
 Group   2 Type C   : 7s4p1d contracted to 3s2p1d pattern {511/31/1}
 Group   3 Type H   : 4s1p contracted to 2s1p pattern {31/1}

Atom   0S    basis set group =>   1
Atom   1C    basis set group =>   2
Atom   2C    basis set group =>   2
Atom   3C    basis set group =>   2
Atom   4C    basis set group =>   2
Atom   5H    basis set group =>   3
Atom   6C    basis set group =>   2
Atom   7H    basis set group =>   3
Atom   8H    basis set group =>   3
Atom   9C    basis set group =>   2
Atom  10H    basis set group =>   3
Atom  11H    basis set group =>   3
Atom  12C    basis set group =>   2
Atom  13H    basis set group =>   3
Atom  14H    basis set group =>   3
Atom  15H    basis set group =>   3
Atom  16S    basis set group =>   1
Atom  17C    basis set group =>   2
Atom  18C    basis set group =>   2
Atom  19C    basis set group =>   2
Atom  20C    basis set group =>   2
Atom  21H    basis set group =>   3
Atom  22C    basis set group =>   2
Atom  23H    basis set group =>   3
Atom  24H    basis set group =>   3
Atom  25C    basis set group =>   2
Atom  26H    basis set group =>   3
Atom  27H    basis set group =>   3
Atom  28C    basis set group =>   2
Atom  29H    basis set group =>   3
Atom  30H    basis set group =>   3
Atom  31H    basis set group =>   3
Atom  32H    basis set group =>   3
Atom  33H    basis set group =>   3


           ************************************************************
           *        Program running with 24 parallel MPI-processes    *
           *              working on a common directory               *
           ************************************************************
------------------------------------------------------------------------------
                           ORCA GTO INTEGRAL CALCULATION
------------------------------------------------------------------------------

                         BASIS SET STATISTICS AND STARTUP INFO

 # of primitive gaussian shells          ...  294
 # of primitive gaussian functions       ...  534
 # of contracted shells                  ...  154
 # of contracted basis functions         ...  322
 Highest angular momentum                ...    2
 Maximum contraction depth               ...    5
 Integral package used                   ... LIBINT
 Integral threshhold            Thresh   ...  1.000e-10
 Primitive cut-off              TCut     ...  1.000e-11


------------------------------ INTEGRAL EVALUATION ----------------------------


 * One electron integrals 
 Pre-screening matrix                    ... done
 Shell pair data                         ... done (   0.003 sec)



           ************************************************************
           *        Program running with 24 parallel MPI-processes    *
           *              working on a common directory               *
           ************************************************************
-------------------------------------------------------------------------------
                                 ORCA SCF
-------------------------------------------------------------------------------

------------
SCF SETTINGS
------------
Hamiltonian:
 Density Functional     Method          .... DFT(GTOs)
 Exchange Functional    Exchange        .... WB97X-D3
 Correlation Functional Correlation     .... WB97X-D3
 Gradients option       PostSCFGGA      .... off
 Hybrid DFT is turned on
   Fraction HF Exchange ScalHFX         ....  0.195728
   Scaling of DF-GGA-X  ScalDFX         ....  0.000000
   Scaling of DF-GGA-C  ScalDFC         ....  1.000000
   Scaling of DF-LDA-C  ScalLDAC        ....  1.000000
   Perturbative correction              ....  0.000000
   Density functional embedding theory  .... OFF
 Long-range corrected/Screened/Range-Separated Hybrid DFT is turned on
   Amount of maximum screened exact exchange              ....  0.804272
   Range separation parameter mu (erf(mu*r12)/r12)        ....  0.250000


General Settings:
 Integral files         IntName         .... config_9379
 Hartree-Fock type      HFTyp           .... RHF
 Total Charge           Charge          ....    0
 Multiplicity           Mult            ....    1
 Number of Electrons    NEL             ....  134
 Basis Dimension        Dim             ....  322
 Nuclear Repulsion      ENuc            ....   1282.9110405022 Eh

Convergence Acceleration:
 DIIS                   CNVDIIS         .... on
   Start iteration      DIISMaxIt       ....    12
   Startup error        DIISStart       ....  0.200000
   # of expansion vecs  DIISMaxEq       ....     5
   Bias factor          DIISBfac        ....   1.050
   Max. coefficient     DIISMaxC        ....  10.000
 Newton-Raphson         CNVNR           .... off
 SOSCF                  CNVSOSCF        .... on
   Start iteration      SOSCFMaxIt      ....   150
   Startup grad/error   SOSCFStart      ....  0.003300
 Level Shifting         CNVShift        .... on
   Level shift para.    LevelShift      ....    0.2500
   Turn off err/grad.   ShiftErr        ....    0.0010
 Zerner damping         CNVZerner       .... off
 Static damping         CNVDamp         .... on
   Fraction old density DampFac         ....    0.7000
   Max. Damping (<1)    DampMax         ....    0.9800
   Min. Damping (>=0)   DampMin         ....    0.0000
   Turn off err/grad.   DampErr         ....    0.1000
 Fernandez-Rico         CNVRico         .... off

SCF Procedure:
 Maximum # iterations   MaxIter         ....   125
 SCF integral mode      SCFMode         .... Direct
   Integral package                     .... LIBINT
 Reset frequency        DirectResetFreq ....    20
 Integral Threshold     Thresh          ....  1.000e-10 Eh
 Primitive CutOff       TCut            ....  1.000e-11 Eh

Convergence Tolerance:
 Convergence Check Mode ConvCheckMode   .... Total+1el-Energy
 Convergence forced     ConvForced      .... 0
 Energy Change          TolE            ....  1.000e-06 Eh
 1-El. energy change                    ....  1.000e-03 Eh
 Orbital Gradient       TolG            ....  5.000e-05
 Orbital Rotation angle TolX            ....  5.000e-05
 DIIS Error             TolErr          ....  1.000e-06


Diagonalization of the overlap matrix:
Smallest eigenvalue                        ... 6.694e-04
Time for diagonalization                   ...    0.015 sec
Threshold for overlap eigenvalues          ... 1.000e-08
Number of eigenvalues below threshold      ... 0
Time for construction of square roots      ...    0.027 sec
Total time needed                          ...    0.043 sec

-------------------
DFT GRID GENERATION
-------------------

General Integration Accuracy     IntAcc      ...  4.340
Radial Grid Type                 RadialGrid  ... Gauss-Chebyshev
Angular Grid (max. acc.)         AngularGrid ... Lebedev-110
Angular grid pruning method      GridPruning ... 3 (G Style)
Weight generation scheme         WeightScheme... Becke
Basis function cutoff            BFCut       ...    1.0000e-10
Integration weight cutoff        WCut        ...    1.0000e-14
Grids for H and He will be reduced by one unit

# of grid points (after initial pruning)     ...  41088 (   0.0 sec)
# of grid points (after weights+screening)   ...  36995 (   0.0 sec)
nearest neighbour list constructed           ...    0.0 sec
Grid point re-assignment to atoms done       ...    0.0 sec
Grid point division into batches done        ...    0.0 sec
Reduced shell lists constructed in    0.1 sec

Total number of grid points                  ...    36995
Total number of batches                      ...      597
Average number of points per batch           ...       61
Average number of grid points per atom       ...     1088
Average number of shells per batch           ...    72.00 (46.75%)
Average number of basis functions per batch  ...   140.77 (43.72%)
Average number of large shells per batch     ...    46.35 (64.37%)
Average number of large basis fcns per batch ...    95.27 (67.68%)
Maximum spatial batch extension              ...  16.78, 16.62, 15.23 au
Average spatial batch extension              ...   0.18,  0.17,  0.16 au

Time for grid setup =    0.150 sec

------------------------------
INITIAL GUESS: MODEL POTENTIAL
------------------------------
Loading Hartree-Fock densities                     ... done
Calculating cut-offs                               ... done
Setting up the integral package                    ... done
Initializing the effective Hamiltonian             ... done
Starting the Coulomb interaction                   ... done (   0.0 sec)
Reading the grid                                   ... done
Mapping shells                                     ... done
Starting the XC term evaluation                    ... done (   0.0 sec)
  promolecular density results
     # of electrons  =    133.995039350
     EX              =   -126.675576161
     EC              =     -4.608490052
     EX+EC           =   -131.284066213
Transforming the Hamiltonian                       ... done (   0.0 sec)
Diagonalizing the Hamiltonian                      ... done (   0.0 sec)
Back transforming the eigenvectors                 ... done (   0.0 sec)
Now organizing SCF variables                       ... done
                      ------------------
                      INITIAL GUESS DONE (   0.3 sec)
                      ------------------
--------------
SCF ITERATIONS
--------------
ITER       Energy         Delta-E        Max-DP      RMS-DP      [F,P]     Damp
               ***  Starting incremental Fock matrix formation  ***
  0  -1339.4275263836   0.000000000000 0.06602702  0.00153187  0.1607603 0.7000
  1  -1339.6072086695  -0.179682285890 0.04421831  0.00111610  0.0964174 0.7000
                               ***Turning on DIIS***
  2  -1339.6950118685  -0.087803198996 0.09134210  0.00212745  0.0503349 0.0000
  3  -1339.8287244907  -0.133712622171 0.04384601  0.00096085  0.0499840 0.0000
  4  -1339.8567242678  -0.027999777139 0.00727121  0.00018906  0.0072283 0.0000
                      *** Initiating the SOSCF procedure ***
                           *** Shutting down DIIS ***
                      *** Re-Reading the Fockian *** 
                      *** Removing any level shift *** 
ITER      Energy       Delta-E        Grad      Rot      Max-DP    RMS-DP
  5  -1339.85758199  -0.0008577204  0.001853  0.001853  0.003367  0.000101
               *** Restarting incremental Fock matrix formation ***
  6  -1339.85778177  -0.0001997818  0.001684  0.004710  0.003196  0.000066
  7  -1339.85785839  -0.0000766162  0.000843  0.005571  0.003979  0.000070
  8  -1339.85787964  -0.0000212501  0.000310  0.000541  0.000892  0.000020
  9  -1339.85788469  -0.0000050553  0.000125  0.000448  0.000281  0.000009
                 **** Energy Check signals convergence ****
              ***Rediagonalizing the Fockian in SOSCF/NRSCF***

               *****************************************************
               *                     SUCCESS                       *
               *           SCF CONVERGED AFTER  10 CYCLES          *
               *****************************************************

Setting up the final grid:

General Integration Accuracy     IntAcc      ...  4.670
Radial Grid Type                 RadialGrid  ... Gauss-Chebyshev
Angular Grid (max. acc.)         AngularGrid ... Lebedev-302
Angular grid pruning method      GridPruning ... 3 (G Style)
Weight generation scheme         WeightScheme... Becke
Basis function cutoff            BFCut       ...    1.0000e-10
Integration weight cutoff        WCut        ...    1.0000e-14
Grids for H and He will be reduced by one unit

# of grid points (after initial pruning)     ... 161752 (   0.0 sec)
# of grid points (after weights+screening)   ... 142645 (   0.1 sec)
nearest neighbour list constructed           ...    0.0 sec
Grid point re-assignment to atoms done       ...    0.0 sec
Grid point division into batches done        ...    0.5 sec
Reduced shell lists constructed in    0.5 sec

Total number of grid points                  ...   142645
Total number of batches                      ...     2246
Average number of points per batch           ...       63
Average number of grid points per atom       ...     4195
Average number of shells per batch           ...    65.86 (42.77%)
Average number of basis functions per batch  ...   128.73 (39.98%)
Average number of large shells per batch     ...    40.73 (61.83%)
Average number of large basis fcns per batch ...    83.34 (64.74%)
Maximum spatial batch extension              ...  13.72, 12.86, 12.51 au
Average spatial batch extension              ...   0.12,  0.11,  0.11 au

Final grid set up in    0.9 sec
Final integration                            ... done (   0.3 sec)
Change in XC energy                          ...     0.006740811
Integrated number of electrons               ...   133.999764155
Previous integrated no of electrons          ...   133.999132052

----------------
TOTAL SCF ENERGY
----------------

Total Energy       :        -1339.85114423 Eh          -36459.20318 eV

Components:
Nuclear Repulsion  :         1282.91104050 Eh           34909.78419 eV
Electronic Energy  :        -2622.76218474 Eh          -71368.98738 eV
One Electron Energy:        -4382.46424655 Eh         -119252.91485 eV
Two Electron Energy:         1759.70206181 Eh           47883.92747 eV

Virial components:
Potential Energy   :        -2671.16916998 Eh          -72686.20841 eV
Kinetic Energy     :         1331.31802575 Eh           36227.00523 eV
Virial Ratio       :            2.00640953


DFT components:
N(Alpha)           :       66.999882077328 electrons
N(Beta)            :       66.999882077328 electrons
N(Total)           :      133.999764154656 electrons
E(XC)              :      -94.218258371098 Eh       
DFET-embed. en.    :        0.000000000000 Eh       

---------------
SCF CONVERGENCE
---------------

  Last Energy change         ...   -3.5385e-07  Tolerance :   1.0000e-06
  Last MAX-Density change    ...    1.7036e-04  Tolerance :   1.0000e-05
  Last RMS-Density change    ...    3.6382e-06  Tolerance :   1.0000e-06
  Last Orbital Gradient      ...    7.5628e-05  Tolerance :   5.0000e-05
  Last Orbital Rotation      ...    2.0689e-04  Tolerance :   5.0000e-05

             **** THE GBW FILE WAS UPDATED (config_9379.gbw) ****
             **** DENSITY FILE WAS UPDATED (config_9379.scfp) ****
             **** ENERGY FILE WAS UPDATED (config_9379.en.tmp) ****
             **** THE GBW FILE WAS UPDATED (config_9379.gbw) ****
             **** DENSITY FILE WAS UPDATED (config_9379.scfp) ****
----------------
ORBITAL ENERGIES
----------------

  NO   OCC          E(Eh)            E(eV) 
   0   2.0000     -88.967297     -2420.9232 
   1   2.0000     -88.964972     -2420.8600 
   2   2.0000     -10.332274      -281.1555 
   3   2.0000     -10.326367      -280.9947 
   4   2.0000     -10.313828      -280.6535 
   5   2.0000     -10.310988      -280.5763 
   6   2.0000     -10.309878      -280.5460 
   7   2.0000     -10.306271      -280.4479 
   8   2.0000     -10.301010      -280.3047 
   9   2.0000     -10.297056      -280.1971 
  10   2.0000     -10.296785      -280.1898 
  11   2.0000     -10.296318      -280.1771 
  12   2.0000     -10.291366      -280.0423 
  13   2.0000     -10.287917      -279.9485 
  14   2.0000     -10.277313      -279.6599 
  15   2.0000     -10.274044      -279.5710 
  16   2.0000      -8.081045      -219.8964 
  17   2.0000      -8.079685      -219.8594 
  18   2.0000      -6.039775      -164.3506 
  19   2.0000      -6.038242      -164.3089 
  20   2.0000      -6.035633      -164.2379 
  21   2.0000      -6.034227      -164.1997 
  22   2.0000      -6.031685      -164.1305 
  23   2.0000      -6.030360      -164.0944 
  24   2.0000      -1.003204       -27.2986 
  25   2.0000      -0.978418       -26.6241 
  26   2.0000      -0.905154       -24.6305 
  27   2.0000      -0.896491       -24.3947 
  28   2.0000      -0.871587       -23.7171 
  29   2.0000      -0.852325       -23.1929 
  30   2.0000      -0.842955       -22.9380 
  31   2.0000      -0.813946       -22.1486 
  32   2.0000      -0.780754       -21.2454 
  33   2.0000      -0.770966       -20.9791 
  34   2.0000      -0.715165       -19.4606 
  35   2.0000      -0.704494       -19.1703 
  36   2.0000      -0.695248       -18.9187 
  37   2.0000      -0.665180       -18.1005 
  38   2.0000      -0.645490       -17.5647 
  39   2.0000      -0.612323       -16.6622 
  40   2.0000      -0.591909       -16.1067 
  41   2.0000      -0.573402       -15.6031 
  42   2.0000      -0.558572       -15.1995 
  43   2.0000      -0.550689       -14.9850 
  44   2.0000      -0.540241       -14.7007 
  45   2.0000      -0.518479       -14.1085 
  46   2.0000      -0.517558       -14.0835 
  47   2.0000      -0.511906       -13.9297 
  48   2.0000      -0.504299       -13.7227 
  49   2.0000      -0.501629       -13.6500 
  50   2.0000      -0.486596       -13.2409 
  51   2.0000      -0.481170       -13.0933 
  52   2.0000      -0.479266       -13.0415 
  53   2.0000      -0.462465       -12.5843 
  54   2.0000      -0.454814       -12.3761 
  55   2.0000      -0.448037       -12.1917 
  56   2.0000      -0.439968       -11.9721 
  57   2.0000      -0.437830       -11.9140 
  58   2.0000      -0.433889       -11.8067 
  59   2.0000      -0.427196       -11.6246 
  60   2.0000      -0.419062       -11.4033 
  61   2.0000      -0.415251       -11.2996 
  62   2.0000      -0.413104       -11.2411 
  63   2.0000      -0.353604        -9.6221 
  64   2.0000      -0.330969        -9.0061 
  65   2.0000      -0.326172        -8.8756 
  66   2.0000      -0.288068        -7.8387 
  67   0.0000       0.026891         0.7318 
  68   0.0000       0.065771         1.7897 
  69   0.0000       0.108327         2.9477 
  70   0.0000       0.118195         3.2163 
  71   0.0000       0.130320         3.5462 
  72   0.0000       0.133991         3.6461 
  73   0.0000       0.149054         4.0560 
  74   0.0000       0.152434         4.1479 
  75   0.0000       0.168821         4.5939 
  76   0.0000       0.171161         4.6575 
  77   0.0000       0.178616         4.8604 
  78   0.0000       0.185729         5.0539 
  79   0.0000       0.196244         5.3401 
  80   0.0000       0.197711         5.3800 
  81   0.0000       0.203814         5.5461 
  82   0.0000       0.213705         5.8152 
  83   0.0000       0.218291         5.9400 
  84   0.0000       0.226747         6.1701 
  85   0.0000       0.228176         6.2090 
  86   0.0000       0.236882         6.4459 
  87   0.0000       0.241735         6.5779 
  88   0.0000       0.245524         6.6810 
  89   0.0000       0.254685         6.9303 
  90   0.0000       0.259962         7.0739 
  91   0.0000       0.265839         7.2338 
  92   0.0000       0.283540         7.7155 
  93   0.0000       0.291879         7.9424 
  94   0.0000       0.299729         8.1560 
  95   0.0000       0.300503         8.1771 
  96   0.0000       0.322433         8.7738 
  97   0.0000       0.327716         8.9176 
  98   0.0000       0.341746         9.2994 
  99   0.0000       0.371653        10.1132 
 100   0.0000       0.382043        10.3959 
 101   0.0000       0.397927        10.8281 
 102   0.0000       0.412665        11.2292 
 103   0.0000       0.422409        11.4943 
 104   0.0000       0.428327        11.6554 
 105   0.0000       0.444563        12.0972 
 106   0.0000       0.460008        12.5175 
 107   0.0000       0.474314        12.9067 
 108   0.0000       0.490550        13.3485 
 109   0.0000       0.494296        13.4505 
 110   0.0000       0.504986        13.7414 
 111   0.0000       0.511704        13.9242 
 112   0.0000       0.523836        14.2543 
 113   0.0000       0.526353        14.3228 
 114   0.0000       0.535416        14.5694 
 115   0.0000       0.542179        14.7535 
 116   0.0000       0.544677        14.8214 
 117   0.0000       0.548077        14.9139 
 118   0.0000       0.553152        15.0520 
 119   0.0000       0.558107        15.1869 
 120   0.0000       0.571097        15.5403 
 121   0.0000       0.590293        16.0627 
 122   0.0000       0.592481        16.1222 
 123   0.0000       0.602247        16.3880 
 124   0.0000       0.613612        16.6972 
 125   0.0000       0.630825        17.1656 
 126   0.0000       0.639753        17.4086 
 127   0.0000       0.652939        17.7674 
 128   0.0000       0.656279        17.8583 
 129   0.0000       0.664332        18.0774 
 130   0.0000       0.675214        18.3735 
 131   0.0000       0.686422        18.6785 
 132   0.0000       0.690317        18.7845 
 133   0.0000       0.694983        18.9114 
 134   0.0000       0.708996        19.2928 
 135   0.0000       0.710347        19.3295 
 136   0.0000       0.721493        19.6328 
 137   0.0000       0.722095        19.6492 
 138   0.0000       0.732296        19.9268 
 139   0.0000       0.737694        20.0737 
 140   0.0000       0.740538        20.1511 
 141   0.0000       0.747641        20.3443 
 142   0.0000       0.750280        20.4162 
 143   0.0000       0.753714        20.5096 
 144   0.0000       0.763219        20.7682 
 145   0.0000       0.767405        20.8821 
 146   0.0000       0.775983        21.1156 
 147   0.0000       0.776989        21.1429 
 148   0.0000       0.781135        21.2558 
 149   0.0000       0.784299        21.3419 
 150   0.0000       0.787611        21.4320 
 151   0.0000       0.788850        21.4657 
 152   0.0000       0.794013        21.6062 
 153   0.0000       0.797419        21.6989 
 154   0.0000       0.800574        21.7847 
 155   0.0000       0.802019        21.8240 
 156   0.0000       0.810557        22.0564 
 157   0.0000       0.814698        22.1691 
 158   0.0000       0.822635        22.3850 
 159   0.0000       0.823871        22.4187 
 160   0.0000       0.833950        22.6929 
 161   0.0000       0.839568        22.8458 
 162   0.0000       0.843719        22.9587 
 163   0.0000       0.849710        23.1218 
 164   0.0000       0.857013        23.3205 
 165   0.0000       0.863840        23.5063 
 166   0.0000       0.876940        23.8627 
 167   0.0000       0.879367        23.9288 
 168   0.0000       0.889565        24.2063 
 169   0.0000       0.897611        24.4252 
 170   0.0000       0.907006        24.6809 
 171   0.0000       0.913539        24.8586 
 172   0.0000       0.931786        25.3552 
 173   0.0000       0.935597        25.4589 
 174   0.0000       0.954142        25.9635 
 175   0.0000       0.963174        26.2093 
 176   0.0000       0.969473        26.3807 
 177   0.0000       0.990680        26.9578 
 178   0.0000       1.021777        27.8040 
 179   0.0000       1.029313        28.0090 
 180   0.0000       1.032339        28.0914 
 181   0.0000       1.054127        28.6843 
 182   0.0000       1.087494        29.5922 
 183   0.0000       1.096600        29.8400 
 184   0.0000       1.120623        30.4937 
 185   0.0000       1.128461        30.7070 
 186   0.0000       1.143333        31.1117 
 187   0.0000       1.160246        31.5719 
 188   0.0000       1.171745        31.8848 
 189   0.0000       1.192916        32.4609 
 190   0.0000       1.216111        33.0921 
 191   0.0000       1.241926        33.7945 
 192   0.0000       1.259344        34.2685 
 193   0.0000       1.270252        34.5653 
 194   0.0000       1.281562        34.8731 
 195   0.0000       1.288644        35.0658 
 196   0.0000       1.320253        35.9259 
 197   0.0000       1.329469        36.1767 
 198   0.0000       1.349295        36.7162 
 199   0.0000       1.353535        36.8316 
 200   0.0000       1.383624        37.6503 
 201   0.0000       1.392182        37.8832 
 202   0.0000       1.408793        38.3352 
 203   0.0000       1.427426        38.8422 
 204   0.0000       1.457438        39.6589 
 205   0.0000       1.464988        39.8643 
 206   0.0000       1.468959        39.9724 
 207   0.0000       1.511205        41.1220 
 208   0.0000       1.520398        41.3721 
 209   0.0000       1.539309        41.8867 
 210   0.0000       1.578940        42.9652 
 211   0.0000       1.612270        43.8721 
 212   0.0000       1.632984        44.4357 
 213   0.0000       1.637478        44.5580 
 214   0.0000       1.649556        44.8867 
 215   0.0000       1.665545        45.3218 
 216   0.0000       1.674686        45.5705 
 217   0.0000       1.690411        45.9984 
 218   0.0000       1.736771        47.2600 
 219   0.0000       1.760314        47.9006 
 220   0.0000       1.763580        47.9895 
 221   0.0000       1.782609        48.5073 
 222   0.0000       1.793483        48.8032 
 223   0.0000       1.809399        49.2362 
 224   0.0000       1.817997        49.4702 
 225   0.0000       1.822456        49.5916 
 226   0.0000       1.836678        49.9785 
 227   0.0000       1.842116        50.1265 
 228   0.0000       1.855218        50.4831 
 229   0.0000       1.857552        50.5466 
 230   0.0000       1.864237        50.7285 
 231   0.0000       1.871177        50.9173 
 232   0.0000       1.887450        51.3601 
 233   0.0000       1.892241        51.4905 
 234   0.0000       1.901912        51.7537 
 235   0.0000       1.903154        51.7874 
 236   0.0000       1.911469        52.0137 
 237   0.0000       1.936442        52.6933 
 238   0.0000       1.939882        52.7869 
 239   0.0000       1.947134        52.9842 
 240   0.0000       1.954774        53.1921 
 241   0.0000       1.959142        53.3110 
 242   0.0000       1.963173        53.4206 
 243   0.0000       1.972581        53.6767 
 244   0.0000       1.979137        53.8550 
 245   0.0000       1.985058        54.0162 
 246   0.0000       1.999115        54.3987 
 247   0.0000       2.012877        54.7732 
 248   0.0000       2.021294        55.0022 
 249   0.0000       2.034472        55.3608 
 250   0.0000       2.047365        55.7116 
 251   0.0000       2.057100        55.9765 
 252   0.0000       2.059594        56.0444 
 253   0.0000       2.075109        56.4666 
 254   0.0000       2.092900        56.9507 
 255   0.0000       2.101551        57.1861 
 256   0.0000       2.112325        57.4793 
 257   0.0000       2.116664        57.5974 
 258   0.0000       2.134448        58.0813 
 259   0.0000       2.145772        58.3894 
 260   0.0000       2.152933        58.5843 
 261   0.0000       2.179939        59.3192 
 262   0.0000       2.203467        59.9594 
 263   0.0000       2.215538        60.2878 
 264   0.0000       2.220569        60.4248 
 265   0.0000       2.229653        60.6719 
 266   0.0000       2.272637        61.8416 
 267   0.0000       2.283491        62.1370 
 268   0.0000       2.315684        63.0130 
 269   0.0000       2.323277        63.2196 
 270   0.0000       2.330929        63.4278 
 271   0.0000       2.359154        64.1958 
 272   0.0000       2.386135        64.9300 
 273   0.0000       2.398804        65.2748 
 274   0.0000       2.405424        65.4549 
 275   0.0000       2.411446        65.6188 
 276   0.0000       2.421703        65.8979 
 277   0.0000       2.448711        66.6328 
 278   0.0000       2.476088        67.3778 
 279   0.0000       2.479075        67.4591 
 280   0.0000       2.496989        67.9465 
 281   0.0000       2.500803        68.0503 
 282   0.0000       2.505799        68.1863 
 283   0.0000       2.514997        68.4365 
 284   0.0000       2.540604        69.1333 
 285   0.0000       2.546990        69.3071 
 286   0.0000       2.558407        69.6178 
 287   0.0000       2.594865        70.6099 
 288   0.0000       2.607962        70.9663 
 289   0.0000       2.624200        71.4081 
 290   0.0000       2.636675        71.7476 
 291   0.0000       2.664262        72.4983 
 292   0.0000       2.677552        72.8599 
 293   0.0000       2.689256        73.1784 
 294   0.0000       2.720394        74.0257 
 295   0.0000       2.741101        74.5891 
 296   0.0000       2.748591        74.7930 
 297   0.0000       2.758540        75.0637 
 298   0.0000       2.789897        75.9170 
 299   0.0000       2.810022        76.4646 
 300   0.0000       2.846435        77.4554 
 301   0.0000       2.857822        77.7653 
 302   0.0000       2.875214        78.2385 
 303   0.0000       2.920097        79.4599 
 304   0.0000       2.959761        80.5392 
 305   0.0000       2.977894        81.0326 
 306   0.0000       3.006756        81.8180 
 307   0.0000       3.017869        82.1204 
 308   0.0000       3.030643        82.4680 
 309   0.0000       3.047204        82.9186 
 310   0.0000       3.087532        84.0160 
 311   0.0000       3.094716        84.2115 
 312   0.0000       3.114189        84.7414 
 313   0.0000       3.125720        85.0552 
 314   0.0000       3.160377        85.9982 
 315   0.0000       3.175683        86.4147 
 316   0.0000       3.185720        86.6878 
 317   0.0000       3.191658        86.8494 
 318   0.0000       3.221745        87.6681 
 319   0.0000       3.236012        88.0564 
 320   0.0000       3.395779        92.4038 
 321   0.0000       3.459981        94.1509 

                    ********************************
                    * MULLIKEN POPULATION ANALYSIS *
                    ********************************

-----------------------
MULLIKEN ATOMIC CHARGES
-----------------------
   0 S :    0.103857
   1 C :   -0.094367
   2 C :   -0.092106
   3 C :    0.022814
   4 C :   -0.125158
   5 H :    0.007755
   6 C :    0.011664
   7 H :    0.020567
   8 H :    0.041964
   9 C :   -0.046956
  10 H :    0.025678
  11 H :    0.039623
  12 C :   -0.052246
  13 H :    0.024960
  14 H :    0.033986
  15 H :    0.040017
  16 S :    0.104175
  17 C :   -0.047524
  18 C :   -0.039490
  19 C :   -0.054155
  20 C :   -0.157753
  21 H :    0.036750
  22 C :    0.080114
  23 H :    0.016813
  24 H :    0.024868
  25 C :   -0.078987
  26 H :    0.043846
  27 H :    0.034196
  28 C :   -0.042408
  29 H :    0.018999
  30 H :    0.020665
  31 H :    0.037959
  32 H :    0.021581
  33 H :    0.018300
Sum of atomic charges:   -0.0000000

--------------------------------
MULLIKEN REDUCED ORBITAL CHARGES
--------------------------------
  0 S s       :     5.845310  s :     5.845310
      pz      :     3.030514  p :     9.950084
      px      :     3.509707
      py      :     3.409864
      dz2     :     0.014353  d :     0.100748
      dxz     :     0.024842
      dyz     :     0.034629
      dx2y2   :     0.013853
      dxy     :     0.013071
  1 C s       :     3.177764  s :     3.177764
      pz      :     0.878878  p :     2.884015
      px      :     1.002110
      py      :     1.003027
      dz2     :     0.006444  d :     0.032587
      dxz     :     0.005823
      dyz     :     0.008662
      dx2y2   :     0.006850
      dxy     :     0.004808
  2 C s       :     3.096469  s :     3.096469
      pz      :     0.991788  p :     2.953599
      px      :     0.987196
      py      :     0.974614
      dz2     :     0.009862  d :     0.042038
      dxz     :     0.007920
      dyz     :     0.009332
      dx2y2   :     0.007237
      dxy     :     0.007686
  3 C s       :     3.186332  s :     3.186332
      pz      :     0.924650  p :     2.756423
      px      :     0.967973
      py      :     0.863801
      dz2     :     0.007929  d :     0.034430
      dxz     :     0.006114
      dyz     :     0.009130
      dx2y2   :     0.005928
      dxy     :     0.005330
  4 C s       :     3.049346  s :     3.049346
      pz      :     1.011321  p :     3.031140
      px      :     1.049963
      py      :     0.969856
      dz2     :     0.008049  d :     0.044671
      dxz     :     0.008341
      dyz     :     0.014190
      dx2y2   :     0.008360
      dxy     :     0.005731
  5 H s       :     0.967585  s :     0.967585
      pz      :     0.006886  p :     0.024661
      px      :     0.005776
      py      :     0.011998
  6 C s       :     3.006497  s :     3.006497
      pz      :     0.992821  p :     2.948045
      px      :     0.966455
      py      :     0.988769
      dz2     :     0.004918  d :     0.033794
      dxz     :     0.008118
      dyz     :     0.007079
      dx2y2   :     0.003480
      dxy     :     0.010200
  7 H s       :     0.957911  s :     0.957911
      pz      :     0.008816  p :     0.021523
      px      :     0.006609
      py      :     0.006097
  8 H s       :     0.934547  s :     0.934547
      pz      :     0.005871  p :     0.023489
      px      :     0.008069
      py      :     0.009549
  9 C s       :     3.041544  s :     3.041544
      pz      :     1.014347  p :     2.969343
      px      :     0.954952
      py      :     1.000044
      dz2     :     0.005943  d :     0.036069
      dxz     :     0.009818
      dyz     :     0.005703
      dx2y2   :     0.004917
      dxy     :     0.009688
 10 H s       :     0.950232  s :     0.950232
      pz      :     0.011272  p :     0.024090
      px      :     0.007300
      py      :     0.005518
 11 H s       :     0.938744  s :     0.938744
      pz      :     0.004091  p :     0.021633
      px      :     0.007031
      py      :     0.010511
 12 C s       :     3.010027  s :     3.010027
      pz      :     1.004252  p :     3.013329
      px      :     1.002966
      py      :     1.006111
      dz2     :     0.002612  d :     0.028890
      dxz     :     0.007764
      dyz     :     0.007607
      dx2y2   :     0.003776
      dxy     :     0.007130
 13 H s       :     0.948369  s :     0.948369
      pz      :     0.008708  p :     0.026671
      px      :     0.007767
      py      :     0.010196
 14 H s       :     0.942480  s :     0.942480
      pz      :     0.010771  p :     0.023534
      px      :     0.006169
      py      :     0.006595
 15 H s       :     0.938586  s :     0.938586
      pz      :     0.007361  p :     0.021397
      px      :     0.009090
      py      :     0.004945
 16 S s       :     5.847582  s :     5.847582
      pz      :     3.155204  p :     9.943196
      px      :     3.119967
      py      :     3.668025
      dz2     :     0.038905  d :     0.105047
      dxz     :     0.013441
      dyz     :     0.016014
      dx2y2   :     0.020118
      dxy     :     0.016569
 17 C s       :     3.125828  s :     3.125828
      pz      :     0.850940  p :     2.886449
      px      :     0.955823
      py      :     1.079686
      dz2     :     0.010383  d :     0.035247
      dxz     :     0.009369
      dyz     :     0.005337
      dx2y2   :     0.004924
      dxy     :     0.005234
 18 C s       :     3.181111  s :     3.181111
      pz      :     0.882119  p :     2.824139
      px      :     0.924017
      py      :     1.018003
      dz2     :     0.008182  d :     0.034240
      dxz     :     0.010628
      dyz     :     0.003216
      dx2y2   :     0.004972
      dxy     :     0.007241
 19 C s       :     3.079678  s :     3.079678
      pz      :     0.986105  p :     2.932782
      px      :     0.953261
      py      :     0.993416
      dz2     :     0.008996  d :     0.041695
      dxz     :     0.013561
      dyz     :     0.007133
      dx2y2   :     0.005523
      dxy     :     0.006482
 20 C s       :     3.063340  s :     3.063340
      pz      :     1.033980  p :     3.050572
      px      :     0.908068
      py      :     1.108524
      dz2     :     0.013885  d :     0.043841
      dxz     :     0.010098
      dyz     :     0.007085
      dx2y2   :     0.006919
      dxy     :     0.005855
 21 H s       :     0.941176  s :     0.941176
      pz      :     0.014216  p :     0.022074
      px      :     0.003078
      py      :     0.004780
 22 C s       :     2.956518  s :     2.956518
      pz      :     0.995025  p :     2.929192
      px      :     0.910092
      py      :     1.024076
      dz2     :     0.008000  d :     0.034177
      dxz     :     0.003968
      dyz     :     0.005910
      dx2y2   :     0.008989
      dxy     :     0.007309
 23 H s       :     0.960525  s :     0.960525
      pz      :     0.013933  p :     0.022662
      px      :     0.003841
      py      :     0.004887
 24 H s       :     0.951168  s :     0.951168
      pz      :     0.007920  p :     0.023964
      px      :     0.004921
      py      :     0.011123
 25 C s       :     3.093114  s :     3.093114
      pz      :     1.042283  p :     2.953997
      px      :     0.924135
      py      :     0.987579
      dz2     :     0.008803  d :     0.031877
      dxz     :     0.003578
      dyz     :     0.003847
      dx2y2   :     0.007803
      dxy     :     0.007845
 26 H s       :     0.934207  s :     0.934207
      pz      :     0.013919  p :     0.021946
      px      :     0.003468
      py      :     0.004559
 27 H s       :     0.942751  s :     0.942751
      pz      :     0.006843  p :     0.023053
      px      :     0.003512
      py      :     0.012699
 28 C s       :     3.006788  s :     3.006788
      pz      :     1.007796  p :     3.008570
      px      :     0.949964
      py      :     1.050809
      dz2     :     0.006873  d :     0.027050
      dxz     :     0.003336
      dyz     :     0.005825
      dx2y2   :     0.004031
      dxy     :     0.006985
 29 H s       :     0.955343  s :     0.955343
      pz      :     0.008651  p :     0.025658
      px      :     0.005737
      py      :     0.011270
 30 H s       :     0.953924  s :     0.953924
      pz      :     0.006221  p :     0.025411
      px      :     0.010083
      py      :     0.009108
 31 H s       :     0.938050  s :     0.938050
      pz      :     0.013994  p :     0.023992
      px      :     0.004252
      py      :     0.005746
 32 H s       :     0.952064  s :     0.952064
      pz      :     0.015073  p :     0.026355
      px      :     0.005516
      py      :     0.005766
 33 H s       :     0.954323  s :     0.954323
      pz      :     0.006899  p :     0.027377
      px      :     0.013586
      py      :     0.006892


                     *******************************
                     * LOEWDIN POPULATION ANALYSIS *
                     *******************************

----------------------
LOEWDIN ATOMIC CHARGES
----------------------
   0 S :    0.383104
   1 C :   -0.196705
   2 C :   -0.056911
   3 C :   -0.059305
   4 C :   -0.170993
   5 H :    0.028756
   6 C :   -0.039016
   7 H :    0.029839
   8 H :    0.032314
   9 C :   -0.038096
  10 H :    0.015533
  11 H :    0.034750
  12 C :   -0.067122
  13 H :    0.014386
  14 H :    0.030151
  15 H :    0.033243
  16 S :    0.401388
  17 C :   -0.165491
  18 C :   -0.070238
  19 C :   -0.052966
  20 C :   -0.197246
  21 H :    0.039591
  22 C :   -0.032143
  23 H :    0.029958
  24 H :    0.030703
  25 C :   -0.036869
  26 H :    0.031794
  27 H :    0.022445
  28 C :   -0.068448
  29 H :    0.023170
  30 H :    0.026055
  31 H :    0.023254
  32 H :    0.012999
  33 H :    0.008116

-------------------------------
LOEWDIN REDUCED ORBITAL CHARGES
-------------------------------
  0 S s       :     5.526604  s :     5.526604
      pz      :     3.038985  p :     9.967038
      px      :     3.503090
      py      :     3.424963
      dz2     :     0.017858  d :     0.123255
      dxz     :     0.031757
      dyz     :     0.044345
      dx2y2   :     0.015060
      dxy     :     0.014234
  1 C s       :     2.919730  s :     2.919730
      pz      :     1.052640  p :     3.198234
      px      :     1.066857
      py      :     1.078737
      dz2     :     0.016085  d :     0.078741
      dxz     :     0.013250
      dyz     :     0.022316
      dx2y2   :     0.015113
      dxy     :     0.011977
  2 C s       :     2.876539  s :     2.876539
      pz      :     1.039132  p :     3.078551
      px      :     1.004756
      py      :     1.034664
      dz2     :     0.025559  d :     0.101821
      dxz     :     0.018878
      dyz     :     0.023371
      dx2y2   :     0.014886
      dxy     :     0.019126
  3 C s       :     2.856036  s :     2.856036
      pz      :     1.036542  p :     3.110389
      px      :     1.030304
      py      :     1.043543
      dz2     :     0.022765  d :     0.092880
      dxz     :     0.016342
      dyz     :     0.024651
      dx2y2   :     0.013630
      dxy     :     0.015493
  4 C s       :     2.905158  s :     2.905158
      pz      :     1.032834  p :     3.158921
      px      :     1.078978
      py      :     1.047109
      dz2     :     0.020155  d :     0.106914
      dxz     :     0.021748
      dyz     :     0.032655
      dx2y2   :     0.017791
      dxy     :     0.014565
  5 H s       :     0.898137  s :     0.898137
      pz      :     0.021238  p :     0.073107
      px      :     0.017534
      py      :     0.034336
  6 C s       :     2.847413  s :     2.847413
      pz      :     1.046809  p :     3.109441
      px      :     1.030778
      py      :     1.031853
      dz2     :     0.010201  d :     0.082162
      dxz     :     0.021549
      dyz     :     0.017595
      dx2y2   :     0.007172
      dxy     :     0.025644
  7 H s       :     0.908050  s :     0.908050
      pz      :     0.026099  p :     0.062111
      px      :     0.017955
      py      :     0.018057
  8 H s       :     0.896894  s :     0.896894
      pz      :     0.017408  p :     0.070792
      px      :     0.024380
      py      :     0.029003
  9 C s       :     2.830266  s :     2.830266
      pz      :     1.049694  p :     3.119800
      px      :     1.022619
      py      :     1.047487
      dz2     :     0.013812  d :     0.088030
      dxz     :     0.025590
      dyz     :     0.013045
      dx2y2   :     0.010374
      dxy     :     0.025210
 10 H s       :     0.909893  s :     0.909893
      pz      :     0.033890  p :     0.074574
      px      :     0.022893
      py      :     0.017791
 11 H s       :     0.902540  s :     0.902540
      pz      :     0.012532  p :     0.062710
      px      :     0.020146
      py      :     0.030032
 12 C s       :     2.827759  s :     2.827759
      pz      :     1.057879  p :     3.165680
      px      :     1.050544
      py      :     1.057257
      dz2     :     0.006391  d :     0.073683
      dxz     :     0.020013
      dyz     :     0.019749
      dx2y2   :     0.007780
      dxy     :     0.019751
 13 H s       :     0.909026  s :     0.909026
      pz      :     0.023623  p :     0.076588
      px      :     0.022822
      py      :     0.030143
 14 H s       :     0.904561  s :     0.904561
      pz      :     0.029635  p :     0.065288
      px      :     0.016595
      py      :     0.019058
 15 H s       :     0.908251  s :     0.908251
      pz      :     0.019923  p :     0.058506
      px      :     0.024700
      py      :     0.013883
 16 S s       :     5.513652  s :     5.513652
      pz      :     3.173465  p :     9.955891
      px      :     3.153316
      py      :     3.629110
      dz2     :     0.050090  d :     0.129069
      dxz     :     0.015457
      dyz     :     0.018072
      dx2y2   :     0.025804
      dxy     :     0.019647
 17 C s       :     2.908063  s :     2.908063
      pz      :     1.001491  p :     3.172567
      px      :     1.099477
      py      :     1.071600
      dz2     :     0.025480  d :     0.084861
      dxz     :     0.025117
      dyz     :     0.010787
      dx2y2   :     0.013336
      dxy     :     0.010142
 18 C s       :     2.881929  s :     2.881929
      pz      :     1.036952  p :     3.100981
      px      :     1.052042
      py      :     1.011987
      dz2     :     0.021284  d :     0.087328
      dxz     :     0.032044
      dyz     :     0.005686
      dx2y2   :     0.013358
      dxy     :     0.014955
 19 C s       :     2.869607  s :     2.869607
      pz      :     1.047619  p :     3.080619
      px      :     1.040170
      py      :     0.992831
      dz2     :     0.025134  d :     0.102740
      dxz     :     0.037714
      dyz     :     0.015177
      dx2y2   :     0.012782
      dxy     :     0.011932
 20 C s       :     2.903166  s :     2.903166
      pz      :     1.085068  p :     3.187630
      px      :     1.008636
      py      :     1.093927
      dz2     :     0.036653  d :     0.106449
      dxz     :     0.027485
      dyz     :     0.015279
      dx2y2   :     0.015146
      dxy     :     0.011885
 21 H s       :     0.896314  s :     0.896314
      pz      :     0.040083  p :     0.064095
      px      :     0.009842
      py      :     0.014170
 22 C s       :     2.831213  s :     2.831213
      pz      :     1.060045  p :     3.115948
      px      :     1.000591
      py      :     1.055312
      dz2     :     0.021618  d :     0.084982
      dxz     :     0.008822
      dyz     :     0.014200
      dx2y2   :     0.021581
      dxy     :     0.018761
 23 H s       :     0.903235  s :     0.903235
      pz      :     0.039388  p :     0.066807
      px      :     0.012349
      py      :     0.015070
 24 H s       :     0.898395  s :     0.898395
      pz      :     0.021802  p :     0.070902
      px      :     0.015514
      py      :     0.033586
 25 C s       :     2.862616  s :     2.862616
      pz      :     1.078995  p :     3.099521
      px      :     0.983032
      py      :     1.037494
      dz2     :     0.021283  d :     0.074733
      dxz     :     0.007093
      dyz     :     0.008754
      dx2y2   :     0.018098
      dxy     :     0.019506
 26 H s       :     0.904914  s :     0.904914
      pz      :     0.038771  p :     0.063292
      px      :     0.011456
      py      :     0.013066
 27 H s       :     0.908083  s :     0.908083
      pz      :     0.018208  p :     0.069472
      px      :     0.013018
      py      :     0.038247
 28 C s       :     2.830046  s :     2.830046
      pz      :     1.062982  p :     3.170836
      px      :     1.009746
      py      :     1.098109
      dz2     :     0.018602  d :     0.067565
      dxz     :     0.007072
      dyz     :     0.014495
      dx2y2   :     0.010007
      dxy     :     0.017389
 29 H s       :     0.903437  s :     0.903437
      pz      :     0.024148  p :     0.073393
      px      :     0.017853
      py      :     0.031392
 30 H s       :     0.901505  s :     0.901505
      pz      :     0.016467  p :     0.072440
      px      :     0.030977
      py      :     0.024996
 31 H s       :     0.908317  s :     0.908317
      pz      :     0.039050  p :     0.068429
      px      :     0.013118
      py      :     0.016261
 32 H s       :     0.901853  s :     0.901853
      pz      :     0.046074  p :     0.085148
      px      :     0.019516
      py      :     0.019557
 33 H s       :     0.903145  s :     0.903145
      pz      :     0.026207  p :     0.088739
      px      :     0.038903
      py      :     0.023630


                      *****************************
                      * MAYER POPULATION ANALYSIS *
                      *****************************

  NA   - Mulliken gross atomic population
  ZA   - Total nuclear charge
  QA   - Mulliken gross atomic charge
  VA   - Mayer's total valence
  BVA  - Mayer's bonded valence
  FA   - Mayer's free valence

  ATOM       NA         ZA         QA         VA         BVA        FA
  0 S     15.8961    16.0000     0.1039     2.4560     2.4560    -0.0000
  1 C      6.0944     6.0000    -0.0944     3.8389     3.8389     0.0000
  2 C      6.0921     6.0000    -0.0921     3.9789     3.9789     0.0000
  3 C      5.9772     6.0000     0.0228     3.9281     3.9281    -0.0000
  4 C      6.1252     6.0000    -0.1252     3.9086     3.9086    -0.0000
  5 H      0.9922     1.0000     0.0078     1.0034     1.0034     0.0000
  6 C      5.9883     6.0000     0.0117     3.9617     3.9617     0.0000
  7 H      0.9794     1.0000     0.0206     0.9829     0.9829    -0.0000
  8 H      0.9580     1.0000     0.0420     0.9821     0.9821    -0.0000
  9 C      6.0470     6.0000    -0.0470     4.0865     4.0865    -0.0000
 10 H      0.9743     1.0000     0.0257     0.9790     0.9790    -0.0000
 11 H      0.9604     1.0000     0.0396     0.9755     0.9755    -0.0000
 12 C      6.0522     6.0000    -0.0522     3.9877     3.9877    -0.0000
 13 H      0.9750     1.0000     0.0250     1.0053     1.0053    -0.0000
 14 H      0.9660     1.0000     0.0340     0.9862     0.9862     0.0000
 15 H      0.9600     1.0000     0.0400     0.9859     0.9859     0.0000
 16 S     15.8958    16.0000     0.1042     2.4728     2.4728     0.0000
 17 C      6.0475     6.0000    -0.0475     3.8527     3.8527    -0.0000
 18 C      6.0395     6.0000    -0.0395     3.9445     3.9445    -0.0000
 19 C      6.0542     6.0000    -0.0542     4.0331     4.0331     0.0000
 20 C      6.1578     6.0000    -0.1578     3.9288     3.9288    -0.0000
 21 H      0.9633     1.0000     0.0367     0.9924     0.9924    -0.0000
 22 C      5.9199     6.0000     0.0801     3.9466     3.9466     0.0000
 23 H      0.9832     1.0000     0.0168     0.9935     0.9935     0.0000
 24 H      0.9751     1.0000     0.0249     0.9922     0.9922     0.0000
 25 C      6.0790     6.0000    -0.0790     4.0475     4.0475     0.0000
 26 H      0.9562     1.0000     0.0438     0.9766     0.9766    -0.0000
 27 H      0.9658     1.0000     0.0342     0.9816     0.9816    -0.0000
 28 C      6.0424     6.0000    -0.0424     3.9922     3.9922     0.0000
 29 H      0.9810     1.0000     0.0190     0.9895     0.9895    -0.0000
 30 H      0.9793     1.0000     0.0207     0.9885     0.9885     0.0000
 31 H      0.9620     1.0000     0.0380     0.9908     0.9908     0.0000
 32 H      0.9784     1.0000     0.0216     1.0121     1.0121     0.0000
 33 H      0.9817     1.0000     0.0183     1.0057     1.0057    -0.0000

  Mayer bond orders larger than 0.100000
B(  0-S ,  1-C ) :   1.1259 B(  0-S ,  4-C ) :   1.1301 B(  1-C ,  2-C ) :   1.5939 
B(  1-C , 32-H ) :   0.9835 B(  2-C ,  3-C ) :   1.2464 B(  2-C ,  6-C ) :   1.0042 
B(  3-C ,  4-C ) :   1.5741 B(  3-C ,  5-H ) :   0.9985 B(  4-C , 20-C ) :   1.0666 
B(  6-C ,  7-H ) :   0.9471 B(  6-C ,  8-H ) :   0.9416 B(  6-C ,  9-C ) :   1.0692 
B(  9-C , 10-H ) :   0.9575 B(  9-C , 11-H ) :   0.9554 B(  9-C , 12-C ) :   1.0794 
B( 12-C , 13-H ) :   0.9762 B( 12-C , 14-H ) :   0.9732 B( 12-C , 15-H ) :   0.9748 
B( 16-S , 17-C ) :   1.1439 B( 16-S , 20-C ) :   1.1367 B( 17-C , 18-C ) :   1.6235 
B( 17-C , 33-H ) :   0.9801 B( 18-C , 19-C ) :   1.2335 B( 18-C , 21-H ) :   0.9775 
B( 19-C , 20-C ) :   1.5912 B( 19-C , 22-C ) :   1.0430 B( 22-C , 23-H ) :   0.9329 
B( 22-C , 24-H ) :   0.9328 B( 22-C , 25-C ) :   1.0482 B( 25-C , 26-H ) :   0.9553 
B( 25-C , 27-H ) :   0.9633 B( 25-C , 28-C ) :   1.0641 B( 28-C , 29-H ) :   0.9745 
B( 28-C , 30-H ) :   0.9731 B( 28-C , 31-H ) :   0.9811 

-------
TIMINGS
-------

Total SCF time: 0 days 0 hours 0 min 18 sec 

Total time                  ....      18.896 sec
Sum of individual times     ....      18.050 sec  ( 95.5%)

Fock matrix formation       ....      16.396 sec  ( 86.8%)
  XC integration            ....       1.413 sec  (  8.6% of F)
    Basis function eval.    ....       0.127 sec  (  9.0% of XC)
    Density eval.           ....       0.095 sec  (  6.7% of XC)
    XC-Functional eval.     ....       0.101 sec  (  7.1% of XC)
    XC-Potential eval.      ....       0.106 sec  (  7.5% of XC)
Diagonalization             ....       0.133 sec  (  0.7%)
Density matrix formation    ....       0.031 sec  (  0.2%)
Population analysis         ....       0.057 sec  (  0.3%)
Initial guess               ....       0.167 sec  (  0.9%)
Orbital Transformation      ....       0.000 sec  (  0.0%)
Orbital Orthonormalization  ....       0.000 sec  (  0.0%)
DIIS solution               ....       0.153 sec  (  0.8%)
SOSCF solution              ....       0.110 sec  (  0.6%)
Grid generation             ....       1.002 sec  (  5.3%)


-------------------------------------------------------------------------------
                          DFT DISPERSION CORRECTION                            
                                                                               
                              DFTD3 V3.1  Rev 1                                
                              USING zero damping                               
-------------------------------------------------------------------------------
The omegaB97X-D3 functional is recognized. Fit by Chai et al.
Active option DFTDOPT                   ...         3   

molecular C6(AA) [au] = 14223.459252 


            DFT-D V3
 parameters
 s6 scaling factor         :     1.0000 
 rs6 scaling factor        :     1.2810 
 s8 scaling factor         :     1.0000 
 rs8 scaling factor        :     1.0940 
 Damping factor alpha6     :    14.0000 
 Damping factor alpha8     :    16.0000 
 ad hoc parameters k1-k3   :    16.0000     1.3333    -4.0000 

 Edisp/kcal,au: -9.172236876448  -0.014616888313 
 E6   /kcal   :  -4.247437642 
 E8   /kcal   :  -4.924799235 
 % E8         :  53.692455841 

-------------------------   ----------------
Dispersion correction           -0.014616888
-------------------------   ----------------


-------------------------   --------------------
FINAL SINGLE POINT ENERGY     -1339.865761122684
-------------------------   --------------------


                            ***************************************
                            *     ORCA property calculations      *
                            ***************************************

                                    ---------------------
                                    Active property flags
                                    ---------------------
   (+) Dipole Moment


------------------------------------------------------------------------------
                       ORCA ELECTRIC PROPERTIES CALCULATION
------------------------------------------------------------------------------

Dipole Moment Calculation                       ... on
Quadrupole Moment Calculation                   ... off
Polarizability Calculation                      ... off
GBWName                                         ... config_9379.gbw
Electron density file                           ... config_9379.scfp
The origin for moment calculation is the CENTER OF MASS  = (83.644848, -62.958814 -232.147800)

-------------
DIPOLE MOMENT
-------------
                                X             Y             Z
Electronic contribution:     29.71098       7.62809       1.50287
Nuclear contribution   :    -30.24210      -8.10903      -1.38415
                        -----------------------------------------
Total Dipole Moment    :     -0.53112      -0.48094       0.11872
                        -----------------------------------------
Magnitude (a.u.)       :      0.72629
Magnitude (Debye)      :      1.84608



--------------------
Rotational spectrum 
--------------------
 
Rotational constants in cm-1:     0.018957     0.009033     0.006792 
Rotational constants in MHz :   568.309806   270.806579   203.628049 

 Dipole components along the rotational axes: 
x,y,z [a.u.] :    -0.274999    -0.550954    -0.385121 
x,y,z [Debye]:    -0.698991    -1.400415    -0.978901 

 

Timings for individual modules:

Sum of individual times         ...       20.046 sec (=   0.334 min)
GTO integral calculation        ...        0.763 sec (=   0.013 min)   3.8 %
SCF iterations                  ...       19.284 sec (=   0.321 min)  96.2 %
                             ****ORCA TERMINATED NORMALLY****
TOTAL RUN TIME: 0 days 0 hours 0 minutes 20 seconds 763 msec
