
                                 *****************
                                 * O   R   C   A *
                                 *****************

           --- An Ab Initio, DFT and Semiempirical electronic structure package ---

                  #######################################################
                  #                        -***-                        #
                  #          Department of theory and spectroscopy      #
                  #               Directorship: Frank Neese             #
                  #        Max Planck Institute fuer Kohlenforschung    #
                  #                Kaiser Wilhelm Platz 1               #
                  #                 D-45470 Muelheim/Ruhr               #
                  #                      Germany                        #
                  #                                                     #
                  #                  All rights reserved                #
                  #                        -***-                        #
                  #######################################################


                         Program Version 4.2.1 -  RELEASE  -


 With contributions from (in alphabetic order):
   Daniel Aravena         : Magnetic Suceptibility
   Michael Atanasov       : Ab Initio Ligand Field Theory (pilot matlab implementation)
   Alexander A. Auer      : GIAO ZORA, VPT2
   Ute Becker             : Parallelization
   Giovanni Bistoni       : ED, misc. LED, open-shell LED, HFLD
   Martin Brehm           : Molecular dynamics
   Dmytro Bykov           : SCF Hessian
   Vijay G. Chilkuri      : MRCI spin determinant printing, contributions to CSF-ICE
   Dipayan Datta          : RHF DLPNO-CCSD density
   Achintya Kumar Dutta   : EOM-CC, STEOM-CC
   Dmitry Ganyushin       : Spin-Orbit,Spin-Spin,Magnetic field MRCI
   Miquel Garcia          : C-PCM Hessian, Gaussian charge scheme
   Yang Guo               : DLPNO-NEVPT2, CIM, IAO-localization
   Andreas Hansen         : Spin unrestricted coupled pair/coupled cluster methods
   Benjamin Helmich-Paris : CASSCF linear response (MC-RPA)
   Lee Huntington         : MR-EOM, pCC
   Robert Izsak           : Overlap fitted RIJCOSX, COSX-SCS-MP3, EOM
   Christian Kollmar      : KDIIS, OOCD, Brueckner-CCSD(T), CCSD density
   Simone Kossmann        : Meta GGA functionals, TD-DFT gradient, OOMP2, MP2 Hessian
   Martin Krupicka        : AUTO-CI
   Lucas Lang             : DCDCAS
   Dagmar Lenk            : GEPOL surface, SMD
   Dimitrios Liakos       : Extrapolation schemes; Compound Job, initial MDCI parallelization
   Dimitrios Manganas     : Further ROCIS development; embedding schemes
   Dimitrios Pantazis     : SARC Basis sets
   Taras Petrenko         : DFT Hessian,TD-DFT gradient, ASA, ECA, R-Raman, ABS, FL, XAS/XES, NRVS
   Peter Pinski           : DLPNO-MP2, DLPNO-MP2 Gradient
   Christoph Reimann      : Effective Core Potentials
   Marius Retegan         : Local ZFS, SOC
   Christoph Riplinger    : Optimizer, TS searches, QM/MM, DLPNO-CCSD(T), (RO)-DLPNO pert. Triples
   Tobias Risthaus        : Range-separated hybrids, TD-DFT gradient, RPA, STAB
   Michael Roemelt        : Original ROCIS implementation
   Masaaki Saitow         : Open-shell DLPNO-CCSD energy and density
   Barbara Sandhoefer     : DKH picture change effects
   Avijit Sen             : IP-ROCIS
   Kantharuban Sivalingam : CASSCF convergence, NEVPT2, FIC-MRCI
   Bernardo de Souza      : ESD, SOC TD-DFT
   Georgi Stoychev        : AutoAux, RI-MP2 NMR
   Willem Van den Heuvel  : Paramagnetic NMR
   Boris Wezisla          : Elementary symmetry handling
   Frank Wennmohs         : Technical directorship


 We gratefully acknowledge several colleagues who have allowed us to
 interface, adapt or use parts of their codes:
   Stefan Grimme, W. Hujo, H. Kruse,             : VdW corrections, initial TS optimization,
                  C. Bannwarth                     DFT functionals, gCP, sTDA/sTD-DF
   Ed Valeev, F. Pavosevic, A. Kumar             : LibInt (2-el integral package), F12 methods
   Garnet Chan, S. Sharma, J. Yang, R. Olivares  : DMRG
   Ulf Ekstrom                                   : XCFun DFT Library
   Mihaly Kallay                                 : mrcc  (arbitrary order and MRCC methods)
   Andreas Klamt, Michael Diedenhofen            : otool_cosmo (COSMO solvation model)
   Jiri Pittner, Ondrej Demel                    : Mk-CCSD
   Frank Weinhold                                : gennbo (NPA and NBO analysis)
   Christopher J. Cramer and Donald G. Truhlar   : smd solvation model
   Lars Goerigk                                  : TD-DFT with DH, B97 family of functionals
   V. Asgeirsson, H. Jonsson                     : NEB implementation
   FAccTs GmbH                                   : IRC, NEB, NEB-TS, Multilevel, MM, QM/MM, CI optimization
   S Lehtola, MJT Oliveira, MAL Marques          : LibXC Library


 Your calculation uses the libint2 library for the computation of 2-el integrals
 For citations please refer to: http://libint.valeyev.net

 Your ORCA version has been built with support for libXC version: 4.2.3
 For citations please refer to: https://tddft.org/programs/libxc/

 This ORCA versions uses:
   CBLAS   interface :  Fast vector & matrix operations
   LAPACKE interface :  Fast linear algebra routines
   SCALAPACK package :  Parallel linear algebra routines


Your calculation utilizes the atom-pairwise dispersion correction
with the zero-damping scheme (D30)
Cite in your paper:
S.Grimme, J.Antony, S.Ehrlich and H.Krieg, J.Chem.Phys., 132, (2010), 154104 
   

XCFun DFT library Copyright 2009-2010 Ulf Ekstrom and contributors.
See http://admol.org/xcfun for more information. This is free soft-
ware; see the source code for copying conditions. There is ABSOLUTELY
NO WARRANTY; not even for MERCHANTABILITY or FITNESS FOR A PARTICULAR
PURPOSE. For details see the documentation. Scientific users of this 
library should cite U. Ekstrom, L. Visscher, R. Bast, A. J. Thorvald-
sen and K. Ruud; J.Chem.Theor.Comp. 2010, DOI: 10.1021/ct100117s
XCFun Version 0.99 
----- Orbital basis set information -----
Your calculation utilizes the basis: def2-SVP
   F. Weigend and R. Ahlrichs, Phys. Chem. Chem. Phys. 7, 3297 (2005).

================================================================================
                                        WARNINGS
                       Please study these warnings very carefully!
================================================================================


INFO   : the flag for use of LIBINT has been found!

================================================================================
                                       INPUT FILE
================================================================================
NAME = config_7955.inp
|  1> ! wB97X-D3 SP def2-SVP
|  2> %pal
|  3> nprocs 24
|  4> end
|  5> 
|  6> * xyz 0 1
|  7> S 	 -81.8839 	 -42.8813 	 -88.8868 	 
|  8> C 	 -80.3408 	 -42.8154 	 -88.03 	 
|  9> C 	 -80.1241 	 -43.989 	 -87.3235 	 
| 10> C 	 -81.2587 	 -44.8915 	 -87.4418 	 
| 11> C 	 -82.2035 	 -44.4803 	 -88.4079 	 
| 12> H 	 -81.5158 	 -45.8031 	 -86.9112 	 
| 13> C 	 -79.0231 	 -44.2467 	 -86.3491 	 
| 14> H 	 -78.2921 	 -43.4522 	 -86.4798 	 
| 15> H 	 -78.4857 	 -45.1468 	 -86.598 	 
| 16> C 	 -79.4787 	 -44.3158 	 -84.8737 	 
| 17> H 	 -80.1264 	 -43.5326 	 -84.5571 	 
| 18> H 	 -80.074 	 -45.2011 	 -84.7621 	 
| 19> C 	 -78.3182 	 -44.4376 	 -83.8228 	 
| 20> H 	 -77.8518 	 -45.4007 	 -83.8739 	 
| 21> H 	 -77.4952 	 -43.7514 	 -83.8488 	 
| 22> H 	 -78.804 	 -44.3623 	 -82.8604 	 
| 23> S 	 -84.9309 	 -44.3527 	 -88.6131 	 
| 24> C 	 -85.8499 	 -45.5896 	 -89.2962 	 
| 25> C 	 -85.0549 	 -46.6769 	 -89.6537 	 
| 26> C 	 -83.698 	 -46.4627 	 -89.3133 	 
| 27> C 	 -83.4031 	 -45.1772 	 -88.742 	 
| 28> H 	 -85.434 	 -47.6988 	 -90.0279 	 
| 29> C 	 -82.6677 	 -47.5391 	 -89.5068 	 
| 30> H 	 -83.2109 	 -48.4712 	 -89.7996 	 
| 31> H 	 -82.1327 	 -47.7598 	 -88.5924 	 
| 32> C 	 -81.5846 	 -47.3773 	 -90.567 	 
| 33> H 	 -81.0538 	 -48.3626 	 -90.719 	 
| 34> H 	 -80.8151 	 -46.7093 	 -90.2265 	 
| 35> C 	 -82.1057 	 -47.0632 	 -91.9573 	 
| 36> H 	 -81.3511 	 -47.288 	 -92.7942 	 
| 37> H 	 -82.5128 	 -45.9664 	 -92.1073 	 
| 38> H 	 -82.9286 	 -47.7234 	 -92.1945 	 
| 39> H 	 -79.776 	 -41.9354 	 -87.8728 	 
| 40> H 	 -86.9492 	 -45.6017 	 -89.3848 	 
| 41> *
| 42> 
| 43>                          ****END OF INPUT****
================================================================================

                       ****************************
                       * Single Point Calculation *
                       ****************************

---------------------------------
CARTESIAN COORDINATES (ANGSTROEM)
---------------------------------
  S    -81.883900  -42.881300  -88.886800
  C    -80.340800  -42.815400  -88.030000
  C    -80.124100  -43.989000  -87.323500
  C    -81.258700  -44.891500  -87.441800
  C    -82.203500  -44.480300  -88.407900
  H    -81.515800  -45.803100  -86.911200
  C    -79.023100  -44.246700  -86.349100
  H    -78.292100  -43.452200  -86.479800
  H    -78.485700  -45.146800  -86.598000
  C    -79.478700  -44.315800  -84.873700
  H    -80.126400  -43.532600  -84.557100
  H    -80.074000  -45.201100  -84.762100
  C    -78.318200  -44.437600  -83.822800
  H    -77.851800  -45.400700  -83.873900
  H    -77.495200  -43.751400  -83.848800
  H    -78.804000  -44.362300  -82.860400
  S    -84.930900  -44.352700  -88.613100
  C    -85.849900  -45.589600  -89.296200
  C    -85.054900  -46.676900  -89.653700
  C    -83.698000  -46.462700  -89.313300
  C    -83.403100  -45.177200  -88.742000
  H    -85.434000  -47.698800  -90.027900
  C    -82.667700  -47.539100  -89.506800
  H    -83.210900  -48.471200  -89.799600
  H    -82.132700  -47.759800  -88.592400
  C    -81.584600  -47.377300  -90.567000
  H    -81.053800  -48.362600  -90.719000
  H    -80.815100  -46.709300  -90.226500
  C    -82.105700  -47.063200  -91.957300
  H    -81.351100  -47.288000  -92.794200
  H    -82.512800  -45.966400  -92.107300
  H    -82.928600  -47.723400  -92.194500
  H    -79.776000  -41.935400  -87.872800
  H    -86.949200  -45.601700  -89.384800

----------------------------
CARTESIAN COORDINATES (A.U.)
----------------------------
  NO LB      ZA    FRAG     MASS         X           Y           Z
   0 S    16.0000    0    32.060  -154.738146  -81.033913  -167.971709
   1 C     6.0000    0    12.011  -151.822109  -80.909380  -166.352592
   2 C     6.0000    0    12.011  -151.412606  -83.127163  -165.017500
   3 C     6.0000    0    12.011  -153.556689  -84.832641  -165.241055
   4 C     6.0000    0    12.011  -155.342102  -84.055585  -167.066719
   5 H     1.0000    0     1.008  -154.042538  -86.555315  -164.238366
   6 C     6.0000    0    12.011  -149.332017  -83.614145  -163.176151
   7 H     1.0000    0     1.008  -147.950627  -82.112758  -163.423138
   8 H     1.0000    0     1.008  -148.316478  -85.315088  -163.646504
   9 C     6.0000    0    12.011  -150.192976  -83.744725  -160.388049
  10 H     1.0000    0     1.008  -151.416952  -82.264692  -159.789762
  11 H     1.0000    0     1.008  -151.317930  -85.417700  -160.177156
  12 C     6.0000    0    12.011  -147.999949  -83.974894  -158.402136
  13 H     1.0000    0     1.008  -147.118581  -85.794889  -158.498701
  14 H     1.0000    0     1.008  -146.444705  -82.678164  -158.451269
  15 H     1.0000    0     1.008  -148.917978  -83.832598  -156.583463
  16 S    16.0000    0    32.060  -160.496141  -83.814456  -167.454491
  17 C     6.0000    0    12.011  -162.232800  -86.151859  -168.745363
  18 C     6.0000    0    12.011  -160.730467  -88.206558  -169.420940
  19 C     6.0000    0    12.011  -158.166298  -87.801778  -168.777677
  20 C     6.0000    0    12.011  -157.609018  -85.372535  -167.698077
  21 H     1.0000    0     1.008  -161.446863  -90.137669  -170.128075
  22 C     6.0000    0    12.011  -156.219313  -89.835880  -169.143339
  23 H     1.0000    0     1.008  -157.245812  -91.597293  -169.696651
  24 H     1.0000    0     1.008  -155.208310  -90.252942  -167.415374
  25 C     6.0000    0    12.011  -154.172551  -89.530122  -171.146827
  26 H     1.0000    0     1.008  -153.169484  -91.392069  -171.434065
  27 H     1.0000    0     1.008  -152.718406  -88.267785  -170.503375
  28 C     6.0000    0    12.011  -155.157287  -88.936559  -173.774113
  29 H     1.0000    0     1.008  -153.731300  -89.361369  -175.355625
  30 H     1.0000    0     1.008  -155.926595  -86.863907  -174.057572
  31 H     1.0000    0     1.008  -156.712343  -90.184156  -174.222356
  32 H     1.0000    0     1.008  -150.754792  -79.246421  -166.055527
  33 H     1.0000    0     1.008  -164.310176  -86.174724  -168.912793

--------------------------------
INTERNAL COORDINATES (ANGSTROEM)
--------------------------------
 S      0   0   0     0.000000000000     0.00000000     0.00000000
 C      1   0   0     1.766240827294     0.00000000     0.00000000
 C      2   1   0     1.386880708641   110.61298494     0.00000000
 C      3   2   1     1.454585267353   111.20636323   357.02357833
 C      4   3   2     1.412473606833   113.37527491     9.98253749
 H      4   3   2     1.085657095956   131.75520995   191.45718771
 C      3   2   1     1.492670643511   126.43326797   188.08145090
 H      7   3   2     1.087508041350   106.93098650   346.17071819
 H      7   3   2     1.077464607307   111.18105963   232.89366829
 C      7   3   2     1.545687979509   114.41923759   108.50470979
 H     10   7   3     1.064496636913   115.48960067   312.90816411
 H     10   7   3     1.072656860324   107.44491383    68.17942723
 C     10   7   3     1.570345917306   115.11423604   186.04373509
 H     13  10   7     1.071308442980   111.07190172   289.80403597
 H     13  10   7     1.071856072428   120.10211236    51.18925959
 H     13  10   7     1.080687508024   104.97252972   173.90709945
 S      5   4   3     2.738083190847   136.97983834   222.18004933
 C     17   5   4     1.685558726358   122.63374269   266.60813651
 C     18  17   5     1.393575451850   111.43684220     3.43030713
 C     19  18  17     1.415249592828   111.54085219     1.59988813
 C      5   4   3     1.427001254379   125.46945372   179.41265493
 H     19  18  17     1.152398394654   125.98005756   172.59588422
 C     20  19  18     1.502530299195   121.20064455   175.31484144
 H     23  20  19     1.117858886443   107.32981562   352.42457784
 H     23  20  19     1.082155649618   112.10401600   235.27453339
 C     23  20  19     1.524240430510   120.05190758   111.44029194
 H     26  23  20     1.129455058867   109.56954911   192.31476532
 H     26  23  20     1.074380984567   110.76262614    77.68417044
 C     26  23  20     1.517609340377   114.53117044   306.97899513
 H     29  26  23     1.149068235572   113.65619677   199.42021730
 H     29  26  23     1.179491691365   115.30764280    73.35506389
 H     29  26  23     1.081338194091   109.62709747   313.74128781
 H      2   1   3     1.057407622443   124.73794361   194.19931710
 H     18  17   5     1.102931031389   125.73456729   178.58686676

---------------------------
INTERNAL COORDINATES (A.U.)
---------------------------
 S      0   0   0     0.000000000000     0.00000000     0.00000000
 C      1   0   0     3.337711450136     0.00000000     0.00000000
 C      2   1   0     2.620824719750   110.61298494     0.00000000
 C      3   2   1     2.748767793734   111.20636323   357.02357833
 C      4   3   2     2.669188288306   113.37527491     9.98253749
 H      4   3   2     2.051594586705   131.75520995   191.45718771
 C      3   2   1     2.820738724380   126.43326797   188.08145090
 H      7   3   2     2.055092366588   106.93098650   346.17071819
 H      7   3   2     2.036113026804   111.18105963   232.89366829
 C      7   3   2     2.920926969767   114.41923759   108.50470979
 H     10   7   3     2.011607114247   115.48960067   312.90816411
 H     10   7   3     2.027027701684   107.44491383    68.17942723
 C     10   7   3     2.967523719230   115.11423604   186.04373509
 H     13  10   7     2.024479562190   111.07190172   289.80403597
 H     13  10   7     2.025514431869   120.10211236    51.18925959
 H     13  10   7     2.042203426516   104.97252972   173.90709945
 S      5   4   3     5.174227362594   136.97983834   222.18004933
 C     17   5   4     3.185244375457   122.63374269   266.60813651
 C     18  17   5     2.633475950953   111.43684220     3.43030713
 C     19  18  17     2.674434141589   111.54085219     1.59988813
 C      5   4   3     2.696641563539   125.46945372   179.41265493
 H     19  18  17     2.177717363066   125.98005756   172.59588422
 C     20  19  18     2.839370773398   121.20064455   175.31484144
 H     23  20  19     2.112447151748   107.32981562   352.42457784
 H     23  20  19     2.044977812054   112.10401600   235.27453339
 C     23  20  19     2.880396975913   120.05190758   111.44029194
 H     26  23  20     2.134360741830   109.56954911   192.31476532
 H     26  23  20     2.030285824325   110.76262614    77.68417044
 C     26  23  20     2.867866031594   114.53117044   306.97899513
 H     29  26  23     2.171424274419   113.65619677   199.42021730
 H     29  26  23     2.228916273916   115.30764280    73.35506389
 H     29  26  23     2.043433044981   109.62709747   313.74128781
 H      2   1   3     1.998210818338   124.73794361   194.19931710
 H     18  17   5     2.084237593928   125.73456729   178.58686676

---------------------
BASIS SET INFORMATION
---------------------
There are 3 groups of distinct atoms

 Group   1 Type S   : 10s7p1d contracted to 4s3p1d pattern {5311/511/1}
 Group   2 Type C   : 7s4p1d contracted to 3s2p1d pattern {511/31/1}
 Group   3 Type H   : 4s1p contracted to 2s1p pattern {31/1}

Atom   0S    basis set group =>   1
Atom   1C    basis set group =>   2
Atom   2C    basis set group =>   2
Atom   3C    basis set group =>   2
Atom   4C    basis set group =>   2
Atom   5H    basis set group =>   3
Atom   6C    basis set group =>   2
Atom   7H    basis set group =>   3
Atom   8H    basis set group =>   3
Atom   9C    basis set group =>   2
Atom  10H    basis set group =>   3
Atom  11H    basis set group =>   3
Atom  12C    basis set group =>   2
Atom  13H    basis set group =>   3
Atom  14H    basis set group =>   3
Atom  15H    basis set group =>   3
Atom  16S    basis set group =>   1
Atom  17C    basis set group =>   2
Atom  18C    basis set group =>   2
Atom  19C    basis set group =>   2
Atom  20C    basis set group =>   2
Atom  21H    basis set group =>   3
Atom  22C    basis set group =>   2
Atom  23H    basis set group =>   3
Atom  24H    basis set group =>   3
Atom  25C    basis set group =>   2
Atom  26H    basis set group =>   3
Atom  27H    basis set group =>   3
Atom  28C    basis set group =>   2
Atom  29H    basis set group =>   3
Atom  30H    basis set group =>   3
Atom  31H    basis set group =>   3
Atom  32H    basis set group =>   3
Atom  33H    basis set group =>   3


           ************************************************************
           *        Program running with 24 parallel MPI-processes    *
           *              working on a common directory               *
           ************************************************************
------------------------------------------------------------------------------
                           ORCA GTO INTEGRAL CALCULATION
------------------------------------------------------------------------------

                         BASIS SET STATISTICS AND STARTUP INFO

 # of primitive gaussian shells          ...  294
 # of primitive gaussian functions       ...  534
 # of contracted shells                  ...  154
 # of contracted basis functions         ...  322
 Highest angular momentum                ...    2
 Maximum contraction depth               ...    5
 Integral package used                   ... LIBINT
 Integral threshhold            Thresh   ...  1.000e-10
 Primitive cut-off              TCut     ...  1.000e-11


------------------------------ INTEGRAL EVALUATION ----------------------------


 * One electron integrals 
 Pre-screening matrix                    ... done
 Shell pair data                         ... done (   0.003 sec)



           ************************************************************
           *        Program running with 24 parallel MPI-processes    *
           *              working on a common directory               *
           ************************************************************
-------------------------------------------------------------------------------
                                 ORCA SCF
-------------------------------------------------------------------------------

------------
SCF SETTINGS
------------
Hamiltonian:
 Density Functional     Method          .... DFT(GTOs)
 Exchange Functional    Exchange        .... WB97X-D3
 Correlation Functional Correlation     .... WB97X-D3
 Gradients option       PostSCFGGA      .... off
 Hybrid DFT is turned on
   Fraction HF Exchange ScalHFX         ....  0.195728
   Scaling of DF-GGA-X  ScalDFX         ....  0.000000
   Scaling of DF-GGA-C  ScalDFC         ....  1.000000
   Scaling of DF-LDA-C  ScalLDAC        ....  1.000000
   Perturbative correction              ....  0.000000
   Density functional embedding theory  .... OFF
 Long-range corrected/Screened/Range-Separated Hybrid DFT is turned on
   Amount of maximum screened exact exchange              ....  0.804272
   Range separation parameter mu (erf(mu*r12)/r12)        ....  0.250000


General Settings:
 Integral files         IntName         .... config_7955
 Hartree-Fock type      HFTyp           .... RHF
 Total Charge           Charge          ....    0
 Multiplicity           Mult            ....    1
 Number of Electrons    NEL             ....  134
 Basis Dimension        Dim             ....  322
 Nuclear Repulsion      ENuc            ....   1287.2698804963 Eh

Convergence Acceleration:
 DIIS                   CNVDIIS         .... on
   Start iteration      DIISMaxIt       ....    12
   Startup error        DIISStart       ....  0.200000
   # of expansion vecs  DIISMaxEq       ....     5
   Bias factor          DIISBfac        ....   1.050
   Max. coefficient     DIISMaxC        ....  10.000
 Newton-Raphson         CNVNR           .... off
 SOSCF                  CNVSOSCF        .... on
   Start iteration      SOSCFMaxIt      ....   150
   Startup grad/error   SOSCFStart      ....  0.003300
 Level Shifting         CNVShift        .... on
   Level shift para.    LevelShift      ....    0.2500
   Turn off err/grad.   ShiftErr        ....    0.0010
 Zerner damping         CNVZerner       .... off
 Static damping         CNVDamp         .... on
   Fraction old density DampFac         ....    0.7000
   Max. Damping (<1)    DampMax         ....    0.9800
   Min. Damping (>=0)   DampMin         ....    0.0000
   Turn off err/grad.   DampErr         ....    0.1000
 Fernandez-Rico         CNVRico         .... off

SCF Procedure:
 Maximum # iterations   MaxIter         ....   125
 SCF integral mode      SCFMode         .... Direct
   Integral package                     .... LIBINT
 Reset frequency        DirectResetFreq ....    20
 Integral Threshold     Thresh          ....  1.000e-10 Eh
 Primitive CutOff       TCut            ....  1.000e-11 Eh

Convergence Tolerance:
 Convergence Check Mode ConvCheckMode   .... Total+1el-Energy
 Convergence forced     ConvForced      .... 0
 Energy Change          TolE            ....  1.000e-06 Eh
 1-El. energy change                    ....  1.000e-03 Eh
 Orbital Gradient       TolG            ....  5.000e-05
 Orbital Rotation angle TolX            ....  5.000e-05
 DIIS Error             TolErr          ....  1.000e-06


Diagonalization of the overlap matrix:
Smallest eigenvalue                        ... 6.939e-04
Time for diagonalization                   ...    0.014 sec
Threshold for overlap eigenvalues          ... 1.000e-08
Number of eigenvalues below threshold      ... 0
Time for construction of square roots      ...    0.026 sec
Total time needed                          ...    0.040 sec

-------------------
DFT GRID GENERATION
-------------------

General Integration Accuracy     IntAcc      ...  4.340
Radial Grid Type                 RadialGrid  ... Gauss-Chebyshev
Angular Grid (max. acc.)         AngularGrid ... Lebedev-110
Angular grid pruning method      GridPruning ... 3 (G Style)
Weight generation scheme         WeightScheme... Becke
Basis function cutoff            BFCut       ...    1.0000e-10
Integration weight cutoff        WCut        ...    1.0000e-14
Grids for H and He will be reduced by one unit

# of grid points (after initial pruning)     ...  41088 (   0.0 sec)
# of grid points (after weights+screening)   ...  36993 (   0.0 sec)
nearest neighbour list constructed           ...    0.0 sec
Grid point re-assignment to atoms done       ...    0.0 sec
Grid point division into batches done        ...    0.0 sec
Reduced shell lists constructed in    0.1 sec

Total number of grid points                  ...    36993
Total number of batches                      ...      594
Average number of points per batch           ...       62
Average number of grid points per atom       ...     1088
Average number of shells per batch           ...    74.62 (48.45%)
Average number of basis functions per batch  ...   146.15 (45.39%)
Average number of large shells per batch     ...    48.46 (64.95%)
Average number of large basis fcns per batch ...   100.38 (68.68%)
Maximum spatial batch extension              ...  14.52, 17.50, 12.56 au
Average spatial batch extension              ...   0.15,  0.16,  0.15 au

Time for grid setup =    0.145 sec

------------------------------
INITIAL GUESS: MODEL POTENTIAL
------------------------------
Loading Hartree-Fock densities                     ... done
Calculating cut-offs                               ... done
Setting up the integral package                    ... done
Initializing the effective Hamiltonian             ... done
Starting the Coulomb interaction                   ... done (   0.0 sec)
Reading the grid                                   ... done
Mapping shells                                     ... done
Starting the XC term evaluation                    ... done (   0.0 sec)
  promolecular density results
     # of electrons  =    133.999975410
     EX              =   -126.713722774
     EC              =     -4.617433753
     EX+EC           =   -131.331156526
Transforming the Hamiltonian                       ... done (   0.0 sec)
Diagonalizing the Hamiltonian                      ... done (   0.0 sec)
Back transforming the eigenvectors                 ... done (   0.0 sec)
Now organizing SCF variables                       ... done
                      ------------------
                      INITIAL GUESS DONE (   0.3 sec)
                      ------------------
--------------
SCF ITERATIONS
--------------
ITER       Energy         Delta-E        Max-DP      RMS-DP      [F,P]     Damp
               ***  Starting incremental Fock matrix formation  ***
  0  -1339.4397887954   0.000000000000 0.06493214  0.00154819  0.1607913 0.7000
  1  -1339.6205675082  -0.180778712770 0.04383348  0.00112760  0.0982475 0.7000
                               ***Turning on DIIS***
  2  -1339.7084585008  -0.087890992648 0.08458789  0.00212193  0.0517935 0.0000
  3  -1339.8416236276  -0.133165126738 0.04156230  0.00097368  0.0365415 0.0000
  4  -1339.8698791570  -0.028255529414 0.00790397  0.00019683  0.0078219 0.0000
                      *** Initiating the SOSCF procedure ***
                           *** Shutting down DIIS ***
                      *** Re-Reading the Fockian *** 
                      *** Removing any level shift *** 
ITER      Energy       Delta-E        Grad      Rot      Max-DP    RMS-DP
  5  -1339.87074196  -0.0008628049  0.001366  0.001366  0.003398  0.000102
               *** Restarting incremental Fock matrix formation ***
  6  -1339.87091848  -0.0001765212  0.001283  0.003639  0.002177  0.000065
  7  -1339.87097877  -0.0000602894  0.000665  0.004379  0.002888  0.000064
  8  -1339.87099494  -0.0000161711  0.000398  0.000815  0.000825  0.000020
  9  -1339.87099927  -0.0000043242  0.000172  0.000432  0.000330  0.000009
 10  -1339.87099980  -0.0000005338  0.000069  0.000216  0.000161  0.000004
                 **** Energy Check signals convergence ****
              ***Rediagonalizing the Fockian in SOSCF/NRSCF***

               *****************************************************
               *                     SUCCESS                       *
               *           SCF CONVERGED AFTER  11 CYCLES          *
               *****************************************************

Setting up the final grid:

General Integration Accuracy     IntAcc      ...  4.670
Radial Grid Type                 RadialGrid  ... Gauss-Chebyshev
Angular Grid (max. acc.)         AngularGrid ... Lebedev-302
Angular grid pruning method      GridPruning ... 3 (G Style)
Weight generation scheme         WeightScheme... Becke
Basis function cutoff            BFCut       ...    1.0000e-10
Integration weight cutoff        WCut        ...    1.0000e-14
Grids for H and He will be reduced by one unit

# of grid points (after initial pruning)     ... 161752 (   0.0 sec)
# of grid points (after weights+screening)   ... 142828 (   0.1 sec)
nearest neighbour list constructed           ...    0.0 sec
Grid point re-assignment to atoms done       ...    0.0 sec
Grid point division into batches done        ...    0.5 sec
Reduced shell lists constructed in    0.5 sec

Total number of grid points                  ...   142828
Total number of batches                      ...     2252
Average number of points per batch           ...       63
Average number of grid points per atom       ...     4201
Average number of shells per batch           ...    68.83 (44.70%)
Average number of basis functions per batch  ...   135.02 (41.93%)
Average number of large shells per batch     ...    43.45 (63.13%)
Average number of large basis fcns per batch ...    88.82 (65.78%)
Maximum spatial batch extension              ...  14.87, 13.60, 16.32 au
Average spatial batch extension              ...   0.10,  0.10,  0.10 au

Final grid set up in    0.8 sec
Final integration                            ... done (   0.3 sec)
Change in XC energy                          ...     0.006683130
Integrated number of electrons               ...   134.000085515
Previous integrated no of electrons          ...   134.006292555

----------------
TOTAL SCF ENERGY
----------------

Total Energy       :        -1339.86431693 Eh          -36459.56163 eV

Components:
Nuclear Repulsion  :         1287.26988050 Eh           35028.39426 eV
Electronic Energy  :        -2627.13419743 Eh          -71487.95589 eV
One Electron Energy:        -4391.14409266 Eh         -119489.10547 eV
Two Electron Energy:         1764.00989523 Eh           48001.14958 eV

Virial components:
Potential Energy   :        -2671.25552457 Eh          -72688.55824 eV
Kinetic Energy     :         1331.39120764 Eh           36228.99661 eV
Virial Ratio       :            2.00636410


DFT components:
N(Alpha)           :       67.000042757339 electrons
N(Beta)            :       67.000042757339 electrons
N(Total)           :      134.000085514679 electrons
E(XC)              :      -94.234918867240 Eh       
DFET-embed. en.    :        0.000000000000 Eh       

---------------
SCF CONVERGENCE
---------------

  Last Energy change         ...   -2.6295e-07  Tolerance :   1.0000e-06
  Last MAX-Density change    ...    2.9406e-05  Tolerance :   1.0000e-05
  Last RMS-Density change    ...    7.7055e-07  Tolerance :   1.0000e-06
  Last Orbital Gradient      ...    1.0142e-05  Tolerance :   5.0000e-05
  Last Orbital Rotation      ...    3.2792e-05  Tolerance :   5.0000e-05

             **** THE GBW FILE WAS UPDATED (config_7955.gbw) ****
             **** DENSITY FILE WAS UPDATED (config_7955.scfp) ****
             **** ENERGY FILE WAS UPDATED (config_7955.en.tmp) ****
             **** THE GBW FILE WAS UPDATED (config_7955.gbw) ****
             **** DENSITY FILE WAS UPDATED (config_7955.scfp) ****
----------------
ORBITAL ENERGIES
----------------

  NO   OCC          E(Eh)            E(eV) 
   0   2.0000     -88.968599     -2420.9587 
   1   2.0000     -88.966788     -2420.9094 
   2   2.0000     -10.328200      -281.0446 
   3   2.0000     -10.327276      -281.0195 
   4   2.0000     -10.319468      -280.8070 
   5   2.0000     -10.314155      -280.6624 
   6   2.0000     -10.306858      -280.4639 
   7   2.0000     -10.305916      -280.4382 
   8   2.0000     -10.301186      -280.3095 
   9   2.0000     -10.296424      -280.1799 
  10   2.0000     -10.290849      -280.0282 
  11   2.0000     -10.288300      -279.9589 
  12   2.0000     -10.286967      -279.9226 
  13   2.0000     -10.282021      -279.7880 
  14   2.0000     -10.281787      -279.7816 
  15   2.0000     -10.276126      -279.6276 
  16   2.0000      -8.084379      -219.9871 
  17   2.0000      -8.082075      -219.9244 
  18   2.0000      -6.042682      -164.4297 
  19   2.0000      -6.040531      -164.3712 
  20   2.0000      -6.038386      -164.3128 
  21   2.0000      -6.036454      -164.2603 
  22   2.0000      -6.035632      -164.2379 
  23   2.0000      -6.032881      -164.1630 
  24   2.0000      -1.012186       -27.5430 
  25   2.0000      -0.988072       -26.8868 
  26   2.0000      -0.913468       -24.8567 
  27   2.0000      -0.909154       -24.7393 
  28   2.0000      -0.872548       -23.7432 
  29   2.0000      -0.848054       -23.0767 
  30   2.0000      -0.844860       -22.9898 
  31   2.0000      -0.811248       -22.0752 
  32   2.0000      -0.784006       -21.3339 
  33   2.0000      -0.771475       -20.9929 
  34   2.0000      -0.713993       -19.4287 
  35   2.0000      -0.703953       -19.1555 
  36   2.0000      -0.683252       -18.5922 
  37   2.0000      -0.659622       -17.9492 
  38   2.0000      -0.644828       -17.5467 
  39   2.0000      -0.614887       -16.7319 
  40   2.0000      -0.590431       -16.0664 
  41   2.0000      -0.572802       -15.5867 
  42   2.0000      -0.559591       -15.2272 
  43   2.0000      -0.551107       -14.9964 
  44   2.0000      -0.539948       -14.6927 
  45   2.0000      -0.529156       -14.3991 
  46   2.0000      -0.515024       -14.0145 
  47   2.0000      -0.510668       -13.8960 
  48   2.0000      -0.504802       -13.7364 
  49   2.0000      -0.502611       -13.6767 
  50   2.0000      -0.481562       -13.1040 
  51   2.0000      -0.476616       -12.9694 
  52   2.0000      -0.475354       -12.9350 
  53   2.0000      -0.470969       -12.8157 
  54   2.0000      -0.461306       -12.5528 
  55   2.0000      -0.447075       -12.1655 
  56   2.0000      -0.443852       -12.0778 
  57   2.0000      -0.435256       -11.8439 
  58   2.0000      -0.429887       -11.6978 
  59   2.0000      -0.426272       -11.5995 
  60   2.0000      -0.422138       -11.4869 
  61   2.0000      -0.418261       -11.3815 
  62   2.0000      -0.402330       -10.9479 
  63   2.0000      -0.344247        -9.3674 
  64   2.0000      -0.333428        -9.0730 
  65   2.0000      -0.327685        -8.9168 
  66   2.0000      -0.290501        -7.9049 
  67   0.0000       0.025020         0.6808 
  68   0.0000       0.069198         1.8830 
  69   0.0000       0.114371         3.1122 
  70   0.0000       0.121787         3.3140 
  71   0.0000       0.126459         3.4411 
  72   0.0000       0.145054         3.9471 
  73   0.0000       0.150312         4.0902 
  74   0.0000       0.155288         4.2256 
  75   0.0000       0.163434         4.4473 
  76   0.0000       0.171598         4.6694 
  77   0.0000       0.176185         4.7942 
  78   0.0000       0.188528         5.1301 
  79   0.0000       0.193859         5.2752 
  80   0.0000       0.198075         5.3899 
  81   0.0000       0.203809         5.5459 
  82   0.0000       0.207652         5.6505 
  83   0.0000       0.213019         5.7965 
  84   0.0000       0.224249         6.1021 
  85   0.0000       0.228538         6.2188 
  86   0.0000       0.237120         6.4524 
  87   0.0000       0.241611         6.5746 
  88   0.0000       0.248830         6.7710 
  89   0.0000       0.252434         6.8691 
  90   0.0000       0.253656         6.9023 
  91   0.0000       0.264508         7.1976 
  92   0.0000       0.288950         7.8627 
  93   0.0000       0.303618         8.2619 
  94   0.0000       0.306855         8.3499 
  95   0.0000       0.317037         8.6270 
  96   0.0000       0.324812         8.8386 
  97   0.0000       0.329483         8.9657 
  98   0.0000       0.354659         9.6508 
  99   0.0000       0.367352         9.9961 
 100   0.0000       0.387148        10.5348 
 101   0.0000       0.405690        11.0394 
 102   0.0000       0.411179        11.1887 
 103   0.0000       0.418624        11.3914 
 104   0.0000       0.436350        11.8737 
 105   0.0000       0.441655        12.0180 
 106   0.0000       0.457023        12.4362 
 107   0.0000       0.475140        12.9292 
 108   0.0000       0.485537        13.2121 
 109   0.0000       0.486536        13.2393 
 110   0.0000       0.500192        13.6109 
 111   0.0000       0.505492        13.7551 
 112   0.0000       0.513060        13.9611 
 113   0.0000       0.519285        14.1305 
 114   0.0000       0.528849        14.3907 
 115   0.0000       0.535126        14.5615 
 116   0.0000       0.547065        14.8864 
 117   0.0000       0.554106        15.0780 
 118   0.0000       0.555624        15.1193 
 119   0.0000       0.568989        15.4830 
 120   0.0000       0.579803        15.7773 
 121   0.0000       0.592446        16.1213 
 122   0.0000       0.598064        16.2742 
 123   0.0000       0.603110        16.4115 
 124   0.0000       0.607296        16.5254 
 125   0.0000       0.619918        16.8688 
 126   0.0000       0.632535        17.2121 
 127   0.0000       0.640260        17.4224 
 128   0.0000       0.653194        17.7743 
 129   0.0000       0.669723        18.2241 
 130   0.0000       0.672189        18.2912 
 131   0.0000       0.676910        18.4197 
 132   0.0000       0.686622        18.6839 
 133   0.0000       0.693742        18.8777 
 134   0.0000       0.703682        19.1482 
 135   0.0000       0.713267        19.4090 
 136   0.0000       0.719279        19.5726 
 137   0.0000       0.721228        19.6256 
 138   0.0000       0.729245        19.8438 
 139   0.0000       0.733212        19.9517 
 140   0.0000       0.739285        20.1170 
 141   0.0000       0.747259        20.3340 
 142   0.0000       0.747830        20.3495 
 143   0.0000       0.750663        20.4266 
 144   0.0000       0.756603        20.5882 
 145   0.0000       0.759899        20.6779 
 146   0.0000       0.767328        20.8800 
 147   0.0000       0.769379        20.9359 
 148   0.0000       0.776027        21.1168 
 149   0.0000       0.783187        21.3116 
 150   0.0000       0.790513        21.5109 
 151   0.0000       0.794885        21.6299 
 152   0.0000       0.797315        21.6960 
 153   0.0000       0.802050        21.8249 
 154   0.0000       0.804352        21.8875 
 155   0.0000       0.805406        21.9162 
 156   0.0000       0.806974        21.9589 
 157   0.0000       0.812943        22.1213 
 158   0.0000       0.817985        22.2585 
 159   0.0000       0.823201        22.4004 
 160   0.0000       0.825749        22.4698 
 161   0.0000       0.838235        22.8095 
 162   0.0000       0.842128        22.9155 
 163   0.0000       0.847859        23.0714 
 164   0.0000       0.854754        23.2590 
 165   0.0000       0.856578        23.3087 
 166   0.0000       0.866378        23.5753 
 167   0.0000       0.879853        23.9420 
 168   0.0000       0.888608        24.1803 
 169   0.0000       0.891172        24.2500 
 170   0.0000       0.897251        24.4154 
 171   0.0000       0.918666        24.9982 
 172   0.0000       0.931491        25.3472 
 173   0.0000       0.947560        25.7844 
 174   0.0000       0.954769        25.9806 
 175   0.0000       0.964676        26.2502 
 176   0.0000       0.989240        26.9186 
 177   0.0000       1.006896        27.3990 
 178   0.0000       1.027402        27.9570 
 179   0.0000       1.032869        28.1058 
 180   0.0000       1.054700        28.6999 
 181   0.0000       1.070367        29.1262 
 182   0.0000       1.084507        29.5109 
 183   0.0000       1.095644        29.8140 
 184   0.0000       1.102471        29.9998 
 185   0.0000       1.125306        30.6211 
 186   0.0000       1.157704        31.5027 
 187   0.0000       1.169356        31.8198 
 188   0.0000       1.174827        31.9687 
 189   0.0000       1.181271        32.1440 
 190   0.0000       1.212411        32.9914 
 191   0.0000       1.228693        33.4344 
 192   0.0000       1.236653        33.6510 
 193   0.0000       1.275394        34.7052 
 194   0.0000       1.282123        34.8883 
 195   0.0000       1.284089        34.9418 
 196   0.0000       1.320186        35.9241 
 197   0.0000       1.325362        36.0649 
 198   0.0000       1.340932        36.4886 
 199   0.0000       1.364746        37.1366 
 200   0.0000       1.380970        37.5781 
 201   0.0000       1.409883        38.3649 
 202   0.0000       1.420903        38.6647 
 203   0.0000       1.447036        39.3758 
 204   0.0000       1.450778        39.4777 
 205   0.0000       1.464680        39.8560 
 206   0.0000       1.479772        40.2666 
 207   0.0000       1.487801        40.4851 
 208   0.0000       1.539257        41.8853 
 209   0.0000       1.576040        42.8862 
 210   0.0000       1.592678        43.3390 
 211   0.0000       1.612224        43.8708 
 212   0.0000       1.633921        44.4613 
 213   0.0000       1.643712        44.7277 
 214   0.0000       1.649055        44.8731 
 215   0.0000       1.662076        45.2274 
 216   0.0000       1.683071        45.7987 
 217   0.0000       1.694106        46.0990 
 218   0.0000       1.753828        47.7241 
 219   0.0000       1.777259        48.3617 
 220   0.0000       1.785875        48.5961 
 221   0.0000       1.796990        48.8986 
 222   0.0000       1.804548        49.1042 
 223   0.0000       1.808653        49.2160 
 224   0.0000       1.810704        49.2718 
 225   0.0000       1.822793        49.6007 
 226   0.0000       1.833801        49.9003 
 227   0.0000       1.849407        50.3249 
 228   0.0000       1.852832        50.4181 
 229   0.0000       1.858949        50.5846 
 230   0.0000       1.864561        50.7373 
 231   0.0000       1.866252        50.7833 
 232   0.0000       1.876062        51.0502 
 233   0.0000       1.884548        51.2812 
 234   0.0000       1.900559        51.7169 
 235   0.0000       1.912009        52.0284 
 236   0.0000       1.917637        52.1816 
 237   0.0000       1.928628        52.4806 
 238   0.0000       1.933036        52.6006 
 239   0.0000       1.940872        52.8138 
 240   0.0000       1.945980        52.9528 
 241   0.0000       1.948893        53.0321 
 242   0.0000       1.966041        53.4987 
 243   0.0000       1.972806        53.6828 
 244   0.0000       1.981618        53.9226 
 245   0.0000       1.987107        54.0719 
 246   0.0000       1.998666        54.3865 
 247   0.0000       2.004092        54.5341 
 248   0.0000       2.024989        55.1028 
 249   0.0000       2.029257        55.2189 
 250   0.0000       2.035977        55.4017 
 251   0.0000       2.037950        55.4555 
 252   0.0000       2.050228        55.7895 
 253   0.0000       2.057947        55.9996 
 254   0.0000       2.090469        56.8845 
 255   0.0000       2.107424        57.3459 
 256   0.0000       2.120615        57.7049 
 257   0.0000       2.123663        57.7878 
 258   0.0000       2.135401        58.1072 
 259   0.0000       2.141213        58.2654 
 260   0.0000       2.148444        58.4621 
 261   0.0000       2.177077        59.2413 
 262   0.0000       2.181050        59.3494 
 263   0.0000       2.198541        59.8253 
 264   0.0000       2.210939        60.1627 
 265   0.0000       2.225788        60.5668 
 266   0.0000       2.241412        60.9919 
 267   0.0000       2.258952        61.4692 
 268   0.0000       2.277907        61.9850 
 269   0.0000       2.291629        62.3584 
 270   0.0000       2.311164        62.8900 
 271   0.0000       2.354713        64.0750 
 272   0.0000       2.374020        64.6004 
 273   0.0000       2.397063        65.2274 
 274   0.0000       2.401423        65.3460 
 275   0.0000       2.416387        65.7532 
 276   0.0000       2.441134        66.4266 
 277   0.0000       2.448164        66.6179 
 278   0.0000       2.463584        67.0375 
 279   0.0000       2.477144        67.4065 
 280   0.0000       2.493875        67.8618 
 281   0.0000       2.498782        67.9953 
 282   0.0000       2.519532        68.5600 
 283   0.0000       2.537247        69.0420 
 284   0.0000       2.542946        69.1971 
 285   0.0000       2.558966        69.6330 
 286   0.0000       2.581353        70.2422 
 287   0.0000       2.587744        70.4161 
 288   0.0000       2.595826        70.6360 
 289   0.0000       2.611447        71.0611 
 290   0.0000       2.638776        71.8047 
 291   0.0000       2.646679        72.0198 
 292   0.0000       2.679066        72.9011 
 293   0.0000       2.694287        73.3153 
 294   0.0000       2.702350        73.5347 
 295   0.0000       2.713058        73.8261 
 296   0.0000       2.724290        74.1317 
 297   0.0000       2.746845        74.7455 
 298   0.0000       2.760885        75.1275 
 299   0.0000       2.781070        75.6768 
 300   0.0000       2.817550        76.6694 
 301   0.0000       2.830511        77.0221 
 302   0.0000       2.899452        78.8981 
 303   0.0000       2.909669        79.1761 
 304   0.0000       2.937954        79.9458 
 305   0.0000       2.982256        81.1513 
 306   0.0000       2.986512        81.2671 
 307   0.0000       3.000563        81.6495 
 308   0.0000       3.029313        82.4318 
 309   0.0000       3.038804        82.6901 
 310   0.0000       3.059585        83.2556 
 311   0.0000       3.078261        83.7637 
 312   0.0000       3.102977        84.4363 
 313   0.0000       3.114438        84.7482 
 314   0.0000       3.133887        85.2774 
 315   0.0000       3.159860        85.9842 
 316   0.0000       3.174870        86.3926 
 317   0.0000       3.191105        86.8344 
 318   0.0000       3.243620        88.2634 
 319   0.0000       3.271095        89.0110 
 320   0.0000       3.345535        91.0366 
 321   0.0000       3.397232        92.4434 

                    ********************************
                    * MULLIKEN POPULATION ANALYSIS *
                    ********************************

-----------------------
MULLIKEN ATOMIC CHARGES
-----------------------
   0 S :    0.115577
   1 C :   -0.107993
   2 C :   -0.074657
   3 C :    0.000697
   4 C :   -0.146254
   5 H :    0.021560
   6 C :    0.098920
   7 H :    0.008102
   8 H :    0.027622
   9 C :   -0.078516
  10 H :    0.029320
  11 H :    0.023594
  12 C :   -0.035821
  13 H :    0.021318
  14 H :    0.028078
  15 H :    0.030857
  16 S :    0.127408
  17 C :   -0.100559
  18 C :   -0.062016
  19 C :   -0.036501
  20 C :   -0.171430
  21 H :    0.050178
  22 C :    0.062475
  23 H :    0.011564
  24 H :    0.028370
  25 C :   -0.067362
  26 H :    0.029887
  27 H :    0.036196
  28 C :   -0.098204
  29 H :    0.042082
  30 H :    0.058347
  31 H :    0.015826
  32 H :    0.039962
  33 H :    0.071373
Sum of atomic charges:   -0.0000000

--------------------------------
MULLIKEN REDUCED ORBITAL CHARGES
--------------------------------
  0 S s       :     5.843803  s :     5.843803
      pz      :     3.567035  p :     9.927482
      px      :     3.201060
      py      :     3.159387
      dz2     :     0.013353  d :     0.113138
      dxz     :     0.023906
      dyz     :     0.020228
      dx2y2   :     0.041039
      dxy     :     0.014611
  1 C s       :     3.175804  s :     3.175804
      pz      :     1.060443  p :     2.898986
      px      :     0.880899
      py      :     0.957644
      dz2     :     0.006196  d :     0.033204
      dxz     :     0.005527
      dyz     :     0.005277
      dx2y2   :     0.008864
      dxy     :     0.007340
  2 C s       :     3.080855  s :     3.080855
      pz      :     0.989942  p :     2.949928
      px      :     0.987954
      py      :     0.972031
      dz2     :     0.007635  d :     0.043875
      dxz     :     0.006944
      dyz     :     0.007732
      dx2y2   :     0.009904
      dxy     :     0.011660
  3 C s       :     3.204448  s :     3.204448
      pz      :     0.936934  p :     2.762641
      px      :     0.917880
      py      :     0.907827
      dz2     :     0.005745  d :     0.032213
      dxz     :     0.006716
      dyz     :     0.004884
      dx2y2   :     0.007361
      dxy     :     0.007507
  4 C s       :     3.045368  s :     3.045368
      pz      :     1.044886  p :     3.054196
      px      :     1.053688
      py      :     0.955621
      dz2     :     0.009236  d :     0.046691
      dxz     :     0.008456
      dyz     :     0.007847
      dx2y2   :     0.011923
      dxy     :     0.009228
  5 H s       :     0.954391  s :     0.954391
      pz      :     0.007057  p :     0.024049
      px      :     0.004601
      py      :     0.012392
  6 C s       :     2.931048  s :     2.931048
      pz      :     0.933086  p :     2.934174
      px      :     0.994799
      py      :     1.006289
      dz2     :     0.009437  d :     0.035857
      dxz     :     0.008742
      dyz     :     0.004733
      dx2y2   :     0.003070
      dxy     :     0.009876
  7 H s       :     0.968524  s :     0.968524
      pz      :     0.003998  p :     0.023374
      px      :     0.008975
      py      :     0.010401
  8 H s       :     0.948742  s :     0.948742
      pz      :     0.004489  p :     0.023636
      px      :     0.007073
      py      :     0.012074
  9 C s       :     3.053919  s :     3.053919
      pz      :     0.938463  p :     2.988591
      px      :     1.012983
      py      :     1.037145
      dz2     :     0.010168  d :     0.036007
      dxz     :     0.008163
      dyz     :     0.004599
      dx2y2   :     0.002483
      dxy     :     0.010594
 10 H s       :     0.947194  s :     0.947194
      pz      :     0.004256  p :     0.023486
      px      :     0.008265
      py      :     0.010965
 11 H s       :     0.952837  s :     0.952837
      pz      :     0.004213  p :     0.023569
      px      :     0.007514
      py      :     0.011842
 12 C s       :     2.996424  s :     2.996424
      pz      :     0.996190  p :     3.011185
      px      :     0.976916
      py      :     1.038079
      dz2     :     0.007709  d :     0.028213
      dxz     :     0.006414
      dyz     :     0.000974
      dx2y2   :     0.003613
      dxy     :     0.009502
 13 H s       :     0.954000  s :     0.954000
      pz      :     0.005048  p :     0.024682
      px      :     0.006637
      py      :     0.012997
 14 H s       :     0.946855  s :     0.946855
      pz      :     0.004622  p :     0.025067
      px      :     0.010494
      py      :     0.009950
 15 H s       :     0.944880  s :     0.944880
      pz      :     0.012082  p :     0.024263
      px      :     0.006796
      py      :     0.005386
 16 S s       :     5.832817  s :     5.832817
      pz      :     3.552311  p :     9.918578
      px      :     2.987190
      py      :     3.379076
      dz2     :     0.015078  d :     0.121197
      dxz     :     0.028955
      dyz     :     0.015142
      dx2y2   :     0.021129
      dxy     :     0.040894
 17 C s       :     3.148298  s :     3.148298
      pz      :     1.045975  p :     2.916694
      px      :     0.926746
      py      :     0.943973
      dz2     :     0.005046  d :     0.035567
      dxz     :     0.004497
      dyz     :     0.006730
      dx2y2   :     0.009341
      dxy     :     0.009954
 18 C s       :     3.189630  s :     3.189630
      pz      :     1.014661  p :     2.838369
      px      :     0.945622
      py      :     0.878086
      dz2     :     0.003369  d :     0.034017
      dxz     :     0.007011
      dyz     :     0.004172
      dx2y2   :     0.010031
      dxy     :     0.009434
 19 C s       :     3.067288  s :     3.067288
      pz      :     0.989688  p :     2.926734
      px      :     0.950846
      py      :     0.986199
      dz2     :     0.005149  d :     0.042480
      dxz     :     0.007296
      dyz     :     0.006449
      dx2y2   :     0.012752
      dxy     :     0.010834
 20 C s       :     3.067358  s :     3.067358
      pz      :     1.127125  p :     3.061380
      px      :     0.923462
      py      :     1.010792
      dz2     :     0.005343  d :     0.042692
      dxz     :     0.006602
      dyz     :     0.006402
      dx2y2   :     0.010416
      dxy     :     0.013928
 21 H s       :     0.928720  s :     0.928720
      pz      :     0.005160  p :     0.021102
      px      :     0.003727
      py      :     0.012215
 22 C s       :     2.964929  s :     2.964929
      pz      :     1.000109  p :     2.936366
      px      :     0.947680
      py      :     0.988577
      dz2     :     0.006947  d :     0.036231
      dxz     :     0.009712
      dyz     :     0.004205
      dx2y2   :     0.005039
      dxy     :     0.010328
 23 H s       :     0.966577  s :     0.966577
      pz      :     0.004986  p :     0.021859
      px      :     0.006191
      py      :     0.010681
 24 H s       :     0.948240  s :     0.948240
      pz      :     0.011668  p :     0.023390
      px      :     0.006828
      py      :     0.004894
 25 C s       :     3.046884  s :     3.046884
      pz      :     0.963047  p :     2.982892
      px      :     1.000978
      py      :     1.018868
      dz2     :     0.010346  d :     0.037586
      dxz     :     0.009715
      dyz     :     0.004790
      dx2y2   :     0.003490
      dxy     :     0.009245
 26 H s       :     0.948788  s :     0.948788
      pz      :     0.004191  p :     0.021325
      px      :     0.005837
      py      :     0.011297
 27 H s       :     0.940586  s :     0.940586
      pz      :     0.004682  p :     0.023218
      px      :     0.009321
      py      :     0.009214
 28 C s       :     3.068489  s :     3.068489
      pz      :     0.967519  p :     3.001923
      px      :     1.012102
      py      :     1.022302
      dz2     :     0.007074  d :     0.027792
      dxz     :     0.007205
      dyz     :     0.003871
      dx2y2   :     0.002744
      dxy     :     0.006898
 29 H s       :     0.937088  s :     0.937088
      pz      :     0.008247  p :     0.020829
      px      :     0.008217
      py      :     0.004365
 30 H s       :     0.922120  s :     0.922120
      pz      :     0.002980  p :     0.019533
      px      :     0.004796
      py      :     0.011757
 31 H s       :     0.960096  s :     0.960096
      pz      :     0.005012  p :     0.024078
      px      :     0.010788
      py      :     0.008278
 32 H s       :     0.934943  s :     0.934943
      pz      :     0.005463  p :     0.025095
      px      :     0.007310
      py      :     0.012322
 33 H s       :     0.905581  s :     0.905581
      pz      :     0.004566  p :     0.023046
      px      :     0.015395
      py      :     0.003085


                     *******************************
                     * LOEWDIN POPULATION ANALYSIS *
                     *******************************

----------------------
LOEWDIN ATOMIC CHARGES
----------------------
   0 S :    0.424885
   1 C :   -0.192875
   2 C :   -0.056056
   3 C :   -0.065503
   4 C :   -0.215804
   5 H :    0.030198
   6 C :   -0.031951
   7 H :    0.026543
   8 H :    0.031705
   9 C :   -0.030257
  10 H :    0.021782
  11 H :    0.022827
  12 C :   -0.061650
  13 H :    0.021351
  14 H :    0.020161
  15 H :    0.028579
  16 S :    0.453681
  17 C :   -0.211991
  18 C :   -0.088674
  19 C :   -0.052892
  20 C :   -0.217911
  21 H :    0.047055
  22 C :   -0.037156
  23 H :    0.031078
  24 H :    0.030538
  25 C :   -0.046639
  26 H :    0.032375
  27 H :    0.020567
  28 C :   -0.082613
  29 H :    0.032567
  30 H :    0.037447
  31 H :    0.017080
  32 H :    0.022925
  33 H :    0.038627

-------------------------------
LOEWDIN REDUCED ORBITAL CHARGES
-------------------------------
  0 S s       :     5.488762  s :     5.488762
      pz      :     3.545533  p :     9.945239
      px      :     3.199874
      py      :     3.199831
      dz2     :     0.015628  d :     0.141114
      dxz     :     0.029006
      dyz     :     0.024600
      dx2y2   :     0.053597
      dxy     :     0.018283
  1 C s       :     2.927115  s :     2.927115
      pz      :     1.096431  p :     3.186601
      px      :     1.010956
      py      :     1.079214
      dz2     :     0.012488  d :     0.079159
      dxz     :     0.012015
      dyz     :     0.014077
      dx2y2   :     0.022622
      dxy     :     0.017957
  2 C s       :     2.863733  s :     2.863733
      pz      :     1.003262  p :     3.083682
      px      :     1.026111
      py      :     1.054308
      dz2     :     0.016740  d :     0.108642
      dxz     :     0.016995
      dyz     :     0.019907
      dx2y2   :     0.025308
      dxy     :     0.029692
  3 C s       :     2.879805  s :     2.879805
      pz      :     1.026135  p :     3.101518
      px      :     1.029230
      py      :     1.046153
      dz2     :     0.013101  d :     0.084180
      dxz     :     0.018425
      dyz     :     0.013216
      dx2y2   :     0.018732
      dxy     :     0.020706
  4 C s       :     2.900488  s :     2.900488
      pz      :     1.079937  p :     3.202649
      px      :     1.079860
      py      :     1.042852
      dz2     :     0.019798  d :     0.112668
      dxz     :     0.021270
      dyz     :     0.017327
      dx2y2   :     0.030642
      dxy     :     0.023631
  5 H s       :     0.897990  s :     0.897990
      pz      :     0.020542  p :     0.071812
      px      :     0.014648
      py      :     0.036622
  6 C s       :     2.819290  s :     2.819290
      pz      :     1.015418  p :     3.121741
      px      :     1.036646
      py      :     1.069677
      dz2     :     0.025217  d :     0.090920
      dxz     :     0.022616
      dyz     :     0.009560
      dx2y2   :     0.007864
      dxy     :     0.025663
  7 H s       :     0.906070  s :     0.906070
      pz      :     0.013539  p :     0.067387
      px      :     0.025935
      py      :     0.027914
  8 H s       :     0.898778  s :     0.898778
      pz      :     0.015198  p :     0.069517
      px      :     0.021182
      py      :     0.033138
  9 C s       :     2.830022  s :     2.830022
      pz      :     0.992663  p :     3.114022
      px      :     1.038528
      py      :     1.082831
      dz2     :     0.025044  d :     0.086213
      dxz     :     0.020675
      dyz     :     0.008938
      dx2y2   :     0.006407
      dxy     :     0.025148
 10 H s       :     0.906428  s :     0.906428
      pz      :     0.016187  p :     0.071790
      px      :     0.025556
      py      :     0.030047
 11 H s       :     0.906562  s :     0.906562
      pz      :     0.014838  p :     0.070611
      px      :     0.023051
      py      :     0.032722
 12 C s       :     2.826714  s :     2.826714
      pz      :     1.044382  p :     3.164310
      px      :     1.035315
      py      :     1.084614
      dz2     :     0.018616  d :     0.070626
      dxz     :     0.018125
      dyz     :     0.001806
      dx2y2   :     0.009096
      dxy     :     0.022983
 13 H s       :     0.908753  s :     0.908753
      pz      :     0.014910  p :     0.069896
      px      :     0.019102
      py      :     0.035884
 14 H s       :     0.909614  s :     0.909614
      pz      :     0.014079  p :     0.070225
      px      :     0.030161
      py      :     0.025986
 15 H s       :     0.903198  s :     0.903198
      pz      :     0.035333  p :     0.068223
      px      :     0.018772
      py      :     0.014117
 16 S s       :     5.471863  s :     5.471863
      pz      :     3.517391  p :     9.922996
      px      :     2.996880
      py      :     3.408725
      dz2     :     0.017891  d :     0.151460
      dxz     :     0.036509
      dyz     :     0.016825
      dx2y2   :     0.026734
      dxy     :     0.053502
 17 C s       :     2.931449  s :     2.931449
      pz      :     1.070615  p :     3.196099
      px      :     1.060301
      py      :     1.065183
      dz2     :     0.010444  d :     0.084443
      dxz     :     0.008826
      dyz     :     0.014904
      dx2y2   :     0.023867
      dxy     :     0.026401
 18 C s       :     2.884821  s :     2.884821
      pz      :     1.031104  p :     3.115553
      px      :     1.044371
      py      :     1.040078
      dz2     :     0.006521  d :     0.088300
      dxz     :     0.016198
      dyz     :     0.009227
      dx2y2   :     0.029042
      dxy     :     0.027312
 19 C s       :     2.865927  s :     2.865927
      pz      :     0.988482  p :     3.080574
      px      :     1.054381
      py      :     1.037711
      dz2     :     0.011013  d :     0.106390
      dxz     :     0.015510
      dyz     :     0.015471
      dx2y2   :     0.035372
      dxy     :     0.029024
 20 C s       :     2.907241  s :     2.907241
      pz      :     1.119319  p :     3.207067
      px      :     1.014514
      py      :     1.073234
      dz2     :     0.010833  d :     0.103603
      dxz     :     0.014303
      dyz     :     0.014774
      dx2y2   :     0.027527
      dxy     :     0.036167
 21 H s       :     0.893935  s :     0.893935
      pz      :     0.014673  p :     0.059010
      px      :     0.011100
      py      :     0.033236
 22 C s       :     2.825043  s :     2.825043
      pz      :     1.055570  p :     3.120825
      px      :     1.031919
      py      :     1.033336
      dz2     :     0.017257  d :     0.091289
      dxz     :     0.025804
      dyz     :     0.009198
      dx2y2   :     0.011922
      dxy     :     0.027108
 23 H s       :     0.906647  s :     0.906647
      pz      :     0.014188  p :     0.062276
      px      :     0.017638
      py      :     0.030449
 24 H s       :     0.900189  s :     0.900189
      pz      :     0.033832  p :     0.069273
      px      :     0.020782
      py      :     0.014659
 25 C s       :     2.833488  s :     2.833488
      pz      :     1.019501  p :     3.121740
      px      :     1.037385
      py      :     1.064854
      dz2     :     0.024638  d :     0.091411
      dxz     :     0.025272
      dyz     :     0.010631
      dx2y2   :     0.008353
      dxy     :     0.022517
 26 H s       :     0.907238  s :     0.907238
      pz      :     0.012405  p :     0.060387
      px      :     0.017168
      py      :     0.030814
 27 H s       :     0.908889  s :     0.908889
      pz      :     0.016353  p :     0.070544
      px      :     0.028638
      py      :     0.025553
 28 C s       :     2.862255  s :     2.862255
      pz      :     1.025259  p :     3.151213
      px      :     1.065449
      py      :     1.060505
      dz2     :     0.018632  d :     0.069145
      dxz     :     0.018427
      dyz     :     0.008166
      dx2y2   :     0.007658
      dxy     :     0.016262
 29 H s       :     0.910313  s :     0.910313
      pz      :     0.024136  p :     0.057119
      px      :     0.021705
      py      :     0.011278
 30 H s       :     0.909305  s :     0.909305
      pz      :     0.008889  p :     0.053248
      px      :     0.012317
      py      :     0.032042
 31 H s       :     0.913925  s :     0.913925
      pz      :     0.015102  p :     0.068996
      px      :     0.030109
      py      :     0.023784
 32 H s       :     0.897120  s :     0.897120
      pz      :     0.019521  p :     0.079955
      px      :     0.024733
      py      :     0.035701
 33 H s       :     0.890210  s :     0.890210
      pz      :     0.015045  p :     0.071163
      px      :     0.044561
      py      :     0.011557


                      *****************************
                      * MAYER POPULATION ANALYSIS *
                      *****************************

  NA   - Mulliken gross atomic population
  ZA   - Total nuclear charge
  QA   - Mulliken gross atomic charge
  VA   - Mayer's total valence
  BVA  - Mayer's bonded valence
  FA   - Mayer's free valence

  ATOM       NA         ZA         QA         VA         BVA        FA
  0 S     15.8844    16.0000     0.1156     2.5058     2.5058    -0.0000
  1 C      6.1080     6.0000    -0.1080     3.8398     3.8398    -0.0000
  2 C      6.0747     6.0000    -0.0747     4.0075     4.0075    -0.0000
  3 C      5.9993     6.0000     0.0007     3.8996     3.8996    -0.0000
  4 C      6.1463     6.0000    -0.1463     3.9280     3.9280    -0.0000
  5 H      0.9784     1.0000     0.0216     1.0037     1.0037    -0.0000
  6 C      5.9011     6.0000     0.0989     3.9477     3.9477     0.0000
  7 H      0.9919     1.0000     0.0081     0.9934     0.9934     0.0000
  8 H      0.9724     1.0000     0.0276     0.9850     0.9850    -0.0000
  9 C      6.0785     6.0000    -0.0785     4.0831     4.0831     0.0000
 10 H      0.9707     1.0000     0.0293     0.9821     0.9821    -0.0000
 11 H      0.9764     1.0000     0.0236     0.9781     0.9781    -0.0000
 12 C      6.0358     6.0000    -0.0358     4.0050     4.0050    -0.0000
 13 H      0.9787     1.0000     0.0213     0.9887     0.9887     0.0000
 14 H      0.9719     1.0000     0.0281     0.9927     0.9927     0.0000
 15 H      0.9691     1.0000     0.0309     0.9879     0.9879    -0.0000
 16 S     15.8726    16.0000     0.1274     2.5661     2.5661    -0.0000
 17 C      6.1006     6.0000    -0.1006     3.8250     3.8250    -0.0000
 18 C      6.0620     6.0000    -0.0620     3.9524     3.9524     0.0000
 19 C      6.0365     6.0000    -0.0365     4.0164     4.0164     0.0000
 20 C      6.1714     6.0000    -0.1714     3.8920     3.8920     0.0000
 21 H      0.9498     1.0000     0.0502     0.9923     0.9923     0.0000
 22 C      5.9375     6.0000     0.0625     3.9955     3.9955     0.0000
 23 H      0.9884     1.0000     0.0116     0.9892     0.9892    -0.0000
 24 H      0.9716     1.0000     0.0284     0.9893     0.9893     0.0000
 25 C      6.0674     6.0000    -0.0674     4.0889     4.0889    -0.0000
 26 H      0.9701     1.0000     0.0299     0.9733     0.9733    -0.0000
 27 H      0.9638     1.0000     0.0362     0.9848     0.9848    -0.0000
 28 C      6.0982     6.0000    -0.0982     3.9783     3.9783    -0.0000
 29 H      0.9579     1.0000     0.0421     0.9823     0.9823    -0.0000
 30 H      0.9417     1.0000     0.0583     0.9849     0.9849    -0.0000
 31 H      0.9842     1.0000     0.0158     0.9904     0.9904    -0.0000
 32 H      0.9600     1.0000     0.0400     1.0089     1.0089    -0.0000
 33 H      0.9286     1.0000     0.0714     0.9942     0.9942     0.0000

  Mayer bond orders larger than 0.100000
B(  0-S ,  1-C ) :   1.1341 B(  0-S ,  4-C ) :   1.1674 B(  1-C ,  2-C ) :   1.6028 
B(  1-C , 32-H ) :   0.9721 B(  2-C ,  3-C ) :   1.2254 B(  2-C ,  6-C ) :   1.0471 
B(  3-C ,  4-C ) :   1.5459 B(  3-C ,  5-H ) :   0.9918 B(  4-C , 20-C ) :   1.0806 
B(  6-C ,  7-H ) :   0.9391 B(  6-C ,  8-H ) :   0.9305 B(  6-C ,  9-C ) :   1.0560 
B(  9-C , 10-H ) :   0.9642 B(  9-C , 11-H ) :   0.9510 B(  9-C , 12-C ) :   1.0805 
B( 12-C , 13-H ) :   0.9757 B( 12-C , 14-H ) :   0.9798 B( 12-C , 15-H ) :   0.9757 
B( 16-S , 17-C ) :   1.2113 B( 16-S , 20-C ) :   1.1609 B( 17-C , 18-C ) :   1.5216 
B( 17-C , 20-C ) :   0.1120 B( 17-C , 33-H ) :   0.9632 B( 18-C , 19-C ) :   1.3372 
B( 18-C , 21-H ) :   0.9719 B( 19-C , 20-C ) :   1.4928 B( 19-C , 22-C ) :   1.0440 
B( 22-C , 23-H ) :   0.9308 B( 22-C , 24-H ) :   0.9366 B( 22-C , 25-C ) :   1.0827 
B( 25-C , 26-H ) :   0.9522 B( 25-C , 27-H ) :   0.9543 B( 25-C , 28-C ) :   1.0719 
B( 28-C , 29-H ) :   0.9752 B( 28-C , 30-H ) :   0.9691 B( 28-C , 31-H ) :   0.9735 


-------
TIMINGS
-------

Total SCF time: 0 days 0 hours 0 min 19 sec 

Total time                  ....      19.642 sec
Sum of individual times     ....      18.783 sec  ( 95.6%)

Fock matrix formation       ....      17.123 sec  ( 87.2%)
  XC integration            ....       1.508 sec  (  8.8% of F)
    Basis function eval.    ....       0.143 sec  (  9.5% of XC)
    Density eval.           ....       0.102 sec  (  6.7% of XC)
    XC-Functional eval.     ....       0.114 sec  (  7.6% of XC)
    XC-Potential eval.      ....       0.123 sec  (  8.2% of XC)
Diagonalization             ....       0.140 sec  (  0.7%)
Density matrix formation    ....       0.027 sec  (  0.1%)
Population analysis         ....       0.057 sec  (  0.3%)
Initial guess               ....       0.167 sec  (  0.9%)
Orbital Transformation      ....       0.000 sec  (  0.0%)
Orbital Orthonormalization  ....       0.000 sec  (  0.0%)
DIIS solution               ....       0.168 sec  (  0.9%)
SOSCF solution              ....       0.125 sec  (  0.6%)
Grid generation             ....       0.975 sec  (  5.0%)


-------------------------------------------------------------------------------
                          DFT DISPERSION CORRECTION                            
                                                                               
                              DFTD3 V3.1  Rev 1                                
                              USING zero damping                               
-------------------------------------------------------------------------------
The omegaB97X-D3 functional is recognized. Fit by Chai et al.
Active option DFTDOPT                   ...         3   

molecular C6(AA) [au] = 14176.572113 


            DFT-D V3
 parameters
 s6 scaling factor         :     1.0000 
 rs6 scaling factor        :     1.2810 
 s8 scaling factor         :     1.0000 
 rs8 scaling factor        :     1.0940 
 Damping factor alpha6     :    14.0000 
 Damping factor alpha8     :    16.0000 
 ad hoc parameters k1-k3   :    16.0000     1.3333    -4.0000 

 Edisp/kcal,au: -9.086569198502  -0.014480368193 
 E6   /kcal   :  -4.209551714 
 E8   /kcal   :  -4.877017485 
 % E8         :  53.672815098 

-------------------------   ----------------
Dispersion correction           -0.014480368
-------------------------   ----------------


-------------------------   --------------------
FINAL SINGLE POINT ENERGY     -1339.878797302963
-------------------------   --------------------


                            ***************************************
                            *     ORCA property calculations      *
                            ***************************************

                                    ---------------------
                                    Active property flags
                                    ---------------------
   (+) Dipole Moment


------------------------------------------------------------------------------
                       ORCA ELECTRIC PROPERTIES CALCULATION
------------------------------------------------------------------------------

Dipole Moment Calculation                       ... on
Quadrupole Moment Calculation                   ... off
Polarizability Calculation                      ... off
GBWName                                         ... config_7955.gbw
Electron density file                           ... config_7955.scfp
The origin for moment calculation is the CENTER OF MASS  = (-155.245920, -84.935088 -166.953569)

-------------
DIPOLE MOMENT
-------------
                                X             Y             Z
Electronic contribution:    -18.57002      13.85008      -5.88666
Nuclear contribution   :     18.77768     -14.28465       6.26601
                        -----------------------------------------
Total Dipole Moment    :      0.20766      -0.43457       0.37935
                        -----------------------------------------
Magnitude (a.u.)       :      0.61309
Magnitude (Debye)      :      1.55836



--------------------
Rotational spectrum 
--------------------
 
Rotational constants in cm-1:     0.020490     0.007807     0.007067 
Rotational constants in MHz :   614.269682   234.054138   211.873633 

 Dipole components along the rotational axes: 
x,y,z [a.u.] :     0.247563    -0.329732     0.453731 
x,y,z [Debye]:     0.629256    -0.838112     1.153292 

 

Timings for individual modules:

Sum of individual times         ...       20.842 sec (=   0.347 min)
GTO integral calculation        ...        0.813 sec (=   0.014 min)   3.9 %
SCF iterations                  ...       20.029 sec (=   0.334 min)  96.1 %
                             ****ORCA TERMINATED NORMALLY****
TOTAL RUN TIME: 0 days 0 hours 0 minutes 21 seconds 543 msec
