
                                 *****************
                                 * O   R   C   A *
                                 *****************

           --- An Ab Initio, DFT and Semiempirical electronic structure package ---

                  #######################################################
                  #                        -***-                        #
                  #          Department of theory and spectroscopy      #
                  #               Directorship: Frank Neese             #
                  #        Max Planck Institute fuer Kohlenforschung    #
                  #                Kaiser Wilhelm Platz 1               #
                  #                 D-45470 Muelheim/Ruhr               #
                  #                      Germany                        #
                  #                                                     #
                  #                  All rights reserved                #
                  #                        -***-                        #
                  #######################################################


                         Program Version 4.2.1 -  RELEASE  -


 With contributions from (in alphabetic order):
   Daniel Aravena         : Magnetic Suceptibility
   Michael Atanasov       : Ab Initio Ligand Field Theory (pilot matlab implementation)
   Alexander A. Auer      : GIAO ZORA, VPT2
   Ute Becker             : Parallelization
   Giovanni Bistoni       : ED, misc. LED, open-shell LED, HFLD
   Martin Brehm           : Molecular dynamics
   Dmytro Bykov           : SCF Hessian
   Vijay G. Chilkuri      : MRCI spin determinant printing, contributions to CSF-ICE
   Dipayan Datta          : RHF DLPNO-CCSD density
   Achintya Kumar Dutta   : EOM-CC, STEOM-CC
   Dmitry Ganyushin       : Spin-Orbit,Spin-Spin,Magnetic field MRCI
   Miquel Garcia          : C-PCM Hessian, Gaussian charge scheme
   Yang Guo               : DLPNO-NEVPT2, CIM, IAO-localization
   Andreas Hansen         : Spin unrestricted coupled pair/coupled cluster methods
   Benjamin Helmich-Paris : CASSCF linear response (MC-RPA)
   Lee Huntington         : MR-EOM, pCC
   Robert Izsak           : Overlap fitted RIJCOSX, COSX-SCS-MP3, EOM
   Christian Kollmar      : KDIIS, OOCD, Brueckner-CCSD(T), CCSD density
   Simone Kossmann        : Meta GGA functionals, TD-DFT gradient, OOMP2, MP2 Hessian
   Martin Krupicka        : AUTO-CI
   Lucas Lang             : DCDCAS
   Dagmar Lenk            : GEPOL surface, SMD
   Dimitrios Liakos       : Extrapolation schemes; Compound Job, initial MDCI parallelization
   Dimitrios Manganas     : Further ROCIS development; embedding schemes
   Dimitrios Pantazis     : SARC Basis sets
   Taras Petrenko         : DFT Hessian,TD-DFT gradient, ASA, ECA, R-Raman, ABS, FL, XAS/XES, NRVS
   Peter Pinski           : DLPNO-MP2, DLPNO-MP2 Gradient
   Christoph Reimann      : Effective Core Potentials
   Marius Retegan         : Local ZFS, SOC
   Christoph Riplinger    : Optimizer, TS searches, QM/MM, DLPNO-CCSD(T), (RO)-DLPNO pert. Triples
   Tobias Risthaus        : Range-separated hybrids, TD-DFT gradient, RPA, STAB
   Michael Roemelt        : Original ROCIS implementation
   Masaaki Saitow         : Open-shell DLPNO-CCSD energy and density
   Barbara Sandhoefer     : DKH picture change effects
   Avijit Sen             : IP-ROCIS
   Kantharuban Sivalingam : CASSCF convergence, NEVPT2, FIC-MRCI
   Bernardo de Souza      : ESD, SOC TD-DFT
   Georgi Stoychev        : AutoAux, RI-MP2 NMR
   Willem Van den Heuvel  : Paramagnetic NMR
   Boris Wezisla          : Elementary symmetry handling
   Frank Wennmohs         : Technical directorship


 We gratefully acknowledge several colleagues who have allowed us to
 interface, adapt or use parts of their codes:
   Stefan Grimme, W. Hujo, H. Kruse,             : VdW corrections, initial TS optimization,
                  C. Bannwarth                     DFT functionals, gCP, sTDA/sTD-DF
   Ed Valeev, F. Pavosevic, A. Kumar             : LibInt (2-el integral package), F12 methods
   Garnet Chan, S. Sharma, J. Yang, R. Olivares  : DMRG
   Ulf Ekstrom                                   : XCFun DFT Library
   Mihaly Kallay                                 : mrcc  (arbitrary order and MRCC methods)
   Andreas Klamt, Michael Diedenhofen            : otool_cosmo (COSMO solvation model)
   Jiri Pittner, Ondrej Demel                    : Mk-CCSD
   Frank Weinhold                                : gennbo (NPA and NBO analysis)
   Christopher J. Cramer and Donald G. Truhlar   : smd solvation model
   Lars Goerigk                                  : TD-DFT with DH, B97 family of functionals
   V. Asgeirsson, H. Jonsson                     : NEB implementation
   FAccTs GmbH                                   : IRC, NEB, NEB-TS, Multilevel, MM, QM/MM, CI optimization
   S Lehtola, MJT Oliveira, MAL Marques          : LibXC Library


 Your calculation uses the libint2 library for the computation of 2-el integrals
 For citations please refer to: http://libint.valeyev.net

 Your ORCA version has been built with support for libXC version: 4.2.3
 For citations please refer to: https://tddft.org/programs/libxc/

 This ORCA versions uses:
   CBLAS   interface :  Fast vector & matrix operations
   LAPACKE interface :  Fast linear algebra routines
   SCALAPACK package :  Parallel linear algebra routines


Your calculation utilizes the atom-pairwise dispersion correction
with the zero-damping scheme (D30)
Cite in your paper:
S.Grimme, J.Antony, S.Ehrlich and H.Krieg, J.Chem.Phys., 132, (2010), 154104 
   

XCFun DFT library Copyright 2009-2010 Ulf Ekstrom and contributors.
See http://admol.org/xcfun for more information. This is free soft-
ware; see the source code for copying conditions. There is ABSOLUTELY
NO WARRANTY; not even for MERCHANTABILITY or FITNESS FOR A PARTICULAR
PURPOSE. For details see the documentation. Scientific users of this 
library should cite U. Ekstrom, L. Visscher, R. Bast, A. J. Thorvald-
sen and K. Ruud; J.Chem.Theor.Comp. 2010, DOI: 10.1021/ct100117s
XCFun Version 0.99 
----- Orbital basis set information -----
Your calculation utilizes the basis: def2-SVP
   F. Weigend and R. Ahlrichs, Phys. Chem. Chem. Phys. 7, 3297 (2005).

================================================================================
                                        WARNINGS
                       Please study these warnings very carefully!
================================================================================


INFO   : the flag for use of LIBINT has been found!

================================================================================
                                       INPUT FILE
================================================================================
NAME = config_4556.inp
|  1> ! wB97X-D3 SP def2-SVP
|  2> %pal
|  3> nprocs 24
|  4> end
|  5> 
|  6> * xyz 0 1
|  7> S 	 -103.797 	 44.0228 	 -97.3522 	 
|  8> C 	 -104.02 	 42.7312 	 -96.2153 	 
|  9> C 	 -104.285 	 43.1023 	 -94.9233 	 
| 10> C 	 -104.365 	 44.5316 	 -94.8392 	 
| 11> C 	 -104.123 	 45.1879 	 -96.0516 	 
| 12> H 	 -104.607 	 45.1125 	 -93.9523 	 
| 13> C 	 -104.454 	 42.2379 	 -93.7034 	 
| 14> H 	 -105.377 	 41.5944 	 -93.8129 	 
| 15> H 	 -104.649 	 42.8609 	 -92.7791 	 
| 16> C 	 -103.384 	 41.2402 	 -93.487 	 
| 17> H 	 -103.366 	 40.7157 	 -94.475 	 
| 18> H 	 -102.413 	 41.7737 	 -93.4348 	 
| 19> C 	 -103.626 	 40.1955 	 -92.4253 	 
| 20> H 	 -103.487 	 40.6524 	 -91.3936 	 
| 21> H 	 -104.62 	 39.8906 	 -92.4967 	 
| 22> H 	 -102.925 	 39.3422 	 -92.5926 	 
| 23> S 	 -105.222 	 47.6463 	 -95.4337 	 
| 24> C 	 -104.508 	 49.0389 	 -96.1816 	 
| 25> C 	 -103.27 	 48.7599 	 -96.7415 	 
| 26> C 	 -102.984 	 47.3298 	 -96.7704 	 
| 27> C 	 -103.913 	 46.6167 	 -96.065 	 
| 28> H 	 -102.631 	 49.61 	 -97.0491 	 
| 29> C 	 -101.75 	 46.6702 	 -97.3595 	 
| 30> H 	 -101.985 	 46.2882 	 -98.3472 	 
| 31> H 	 -101.51 	 45.8997 	 -96.5993 	 
| 32> C 	 -100.49 	 47.5494 	 -97.527 	 
| 33> H 	 -100.333 	 48.1975 	 -96.7012 	 
| 34> H 	 -100.654 	 48.3224 	 -98.2571 	 
| 35> C 	 -99.2109 	 46.7381 	 -97.627 	 
| 36> H 	 -99.1708 	 46.0535 	 -98.4732 	 
| 37> H 	 -99.1349 	 46.1542 	 -96.6383 	 
| 38> H 	 -98.2972 	 47.3437 	 -97.7741 	 
| 39> H 	 -103.802 	 41.6855 	 -96.5118 	 
| 40> H 	 -104.919 	 49.9786 	 -96.0141 	 
| 41> *
| 42> 
| 43>                          ****END OF INPUT****
================================================================================

                       ****************************
                       * Single Point Calculation *
                       ****************************

---------------------------------
CARTESIAN COORDINATES (ANGSTROEM)
---------------------------------
  S    -103.797000   44.022800  -97.352200
  C    -104.020000   42.731200  -96.215300
  C    -104.285000   43.102300  -94.923300
  C    -104.365000   44.531600  -94.839200
  C    -104.123000   45.187900  -96.051600
  H    -104.607000   45.112500  -93.952300
  C    -104.454000   42.237900  -93.703400
  H    -105.377000   41.594400  -93.812900
  H    -104.649000   42.860900  -92.779100
  C    -103.384000   41.240200  -93.487000
  H    -103.366000   40.715700  -94.475000
  H    -102.413000   41.773700  -93.434800
  C    -103.626000   40.195500  -92.425300
  H    -103.487000   40.652400  -91.393600
  H    -104.620000   39.890600  -92.496700
  H    -102.925000   39.342200  -92.592600
  S    -105.222000   47.646300  -95.433700
  C    -104.508000   49.038900  -96.181600
  C    -103.270000   48.759900  -96.741500
  C    -102.984000   47.329800  -96.770400
  C    -103.913000   46.616700  -96.065000
  H    -102.631000   49.610000  -97.049100
  C    -101.750000   46.670200  -97.359500
  H    -101.985000   46.288200  -98.347200
  H    -101.510000   45.899700  -96.599300
  C    -100.490000   47.549400  -97.527000
  H    -100.333000   48.197500  -96.701200
  H    -100.654000   48.322400  -98.257100
  C    -99.210900   46.738100  -97.627000
  H    -99.170800   46.053500  -98.473200
  H    -99.134900   46.154200  -96.638300
  H    -98.297200   47.343700  -97.774100
  H    -103.802000   41.685500  -96.511800
  H    -104.919000   49.978600  -96.014100

----------------------------
CARTESIAN COORDINATES (A.U.)
----------------------------
  NO LB      ZA    FRAG     MASS         X           Y           Z
   0 S    16.0000    0    32.060  -196.147904   83.191036  -183.968997
   1 C     6.0000    0    12.011  -196.569312   80.750265  -181.820567
   2 C     6.0000    0    12.011  -197.070090   81.451543  -179.379041
   3 C     6.0000    0    12.011  -197.221268   84.152528  -179.220115
   4 C     6.0000    0    12.011  -196.763954   85.392756  -181.511219
   5 H     1.0000    0     1.008  -197.678582   85.250270  -177.544117
   6 C     6.0000    0    12.011  -197.389454   79.818063  -177.073764
   7 H     1.0000    0     1.008  -199.133671   78.602025  -177.280689
   8 H     1.0000    0     1.008  -197.757950   80.995363  -175.327090
   9 C     6.0000    0    12.011  -195.367447   77.932684  -176.664827
  10 H     1.0000    0     1.008  -195.333432   76.941522  -178.531877
  11 H     1.0000    0     1.008  -193.532523   78.940853  -176.566183
  12 C     6.0000    0    12.011  -195.824760   75.958487  -174.658505
  13 H     1.0000    0     1.008  -195.562088   76.821903  -172.708874
  14 H     1.0000    0     1.008  -197.703148   75.382309  -174.793431
  15 H     1.0000    0     1.008  -194.500062   74.345984  -174.974656
  16 S    16.0000    0    32.060  -198.840763   90.038458  -180.343557
  17 C     6.0000    0    12.011  -197.491499   92.670091  -181.756883
  18 C     6.0000    0    12.011  -195.152018   92.142857  -182.814941
  19 C     6.0000    0    12.011  -194.611556   89.440360  -182.869554
  20 C     6.0000    0    12.011  -196.367112   88.092796  -181.536541
  21 H     1.0000    0     1.008  -193.944483   93.749314  -183.396221
  22 C     6.0000    0    12.011  -192.279634   88.193897  -183.982792
  23 H     1.0000    0     1.008  -192.723720   87.472021  -185.849274
  24 H     1.0000    0     1.008  -191.826100   86.737863  -182.546222
  25 C     6.0000    0    12.011  -189.898579   89.855344  -184.299321
  26 H     1.0000    0     1.008  -189.601892   91.080075  -182.738785
  27 H     1.0000    0     1.008  -190.208494   91.316102  -185.679010
  28 C     6.0000    0    12.011  -187.481430   88.322209  -184.488293
  29 H     1.0000    0     1.008  -187.405652   87.028503  -186.087380
  30 H     1.0000    0     1.008  -187.337811   87.218798  -182.619921
  31 H     1.0000    0     1.008  -185.754788   89.466627  -184.766272
  32 H     1.0000    0     1.008  -196.157352   78.774179  -182.380871
  33 H     1.0000    0     1.008  -198.268176   94.445867  -181.440354

--------------------------------
INTERNAL COORDINATES (ANGSTROEM)
--------------------------------
 S      0   0   0     0.000000000000     0.00000000     0.00000000
 C      1   0   0     1.735079586071     0.00000000     0.00000000
 C      2   1   0     1.370111021049   116.17546508     0.00000000
 C      3   2   1     1.434005334718   109.63693819     2.24141085
 C      4   3   2     1.399716917809   114.01013486   358.32095802
 H      4   3   2     1.087474330732   126.34638952   177.07723443
 C      3   2   1     1.504627651614   129.09908366   183.53945400
 H      7   3   2     1.130491707179   109.88833131   294.45791513
 H      7   3   2     1.131584945994   111.42685888   179.01371190
 C      7   3   2     1.478896294539   115.14677298    49.88147158
 H     10   7   3     1.118735111633   101.46104246   306.91976393
 H     10   7   3     1.109138444920   108.40860621    56.76832450
 C     10   7   3     1.509029151475   116.99825825   190.42611191
 H     13  10   7     1.136874443375   109.91588607   284.13041223
 H     13  10   7     1.042160241997   107.89644741    40.76158996
 H     13  10   7     1.116920400029   108.83628749   161.77546484
 S      5   4   3     2.762848524621    98.90076562   162.19290621
 C     17   5   4     1.734498535600   117.01557759   148.54708977
 C     18  17   5     1.387073541670   112.33143091   345.23954938
 C     19  18  17     1.458703952144   112.34536976    10.07651493
 C     20  19  18     1.367165597139   111.58693576   351.11253137
 H     19  18  17     1.107072161153   118.22053012   192.97048505
 C     20  19  18     1.518178833339   126.37021604   177.49798959
 H     23  20  19     1.084758171207   109.28235715   260.53463502
 H     23  20  19     1.108681329328   102.22964076   137.97628954
 C     23  20  19     1.545525441395   117.22928886    21.30282386
 H     26  23  20     1.061427458661   112.55785091    40.70778748
 H     26  23  20     1.075858266688   110.97753083   293.91336116
 C     26  23  20     1.517993577062   112.95829048   158.96552119
 H     29  26  23     1.089192182308   114.71647951    60.92740782
 H     29  26  23     1.150757533106   105.67830826   299.26110767
 H     29  26  23     1.106000660036   114.34524659   178.47697778
 H      2   1   3     1.108568780004   120.10991333   188.88431684
 H     18  17   5     1.039236902732   119.58324544   177.01128782

---------------------------
INTERNAL COORDINATES (A.U.)
---------------------------
 S      0   0   0     0.000000000000     0.00000000     0.00000000
 C      1   0   0     3.278825238231     0.00000000     0.00000000
 C      2   1   0     2.589134602850   116.17546508     0.00000000
 C      3   2   1     2.709877357199   109.63693819     2.24141085
 C      4   3   2     2.645081639675   114.01013486   358.32095802
 H      4   3   2     2.055028662752   126.34638952   177.07723443
 C      3   2   1     2.843334195075   129.09908366   183.53945400
 H      7   3   2     2.136319723237   109.88833131   294.45791513
 H      7   3   2     2.138385645197   111.42685888   179.01371190
 C      7   3   2     2.794708977149   115.14677298    49.88147158
 H     10   7   3     2.114102977388   101.46104246   306.91976393
 H     10   7   3     2.095967905502   108.40860621    56.76832450
 C     10   7   3     2.851651824390   116.99825825   190.42611191
 H     13  10   7     2.148381346634   109.91588607   284.13041223
 H     13  10   7     1.969397445036   107.89644741    40.76158996
 H     13  10   7     2.110673669444   108.83628749   161.77546484
 S      5   4   3     5.221027061042    98.90076562   162.19290621
 C     17   5   4     3.277727211972   117.01557759   148.54708977
 C     18  17   5     2.621189121364   112.33143091   345.23954938
 C     19  18  17     2.756550980020   112.34536976    10.07651493
 C     20  19  18     2.583568558311   111.58693576   351.11253137
 H     19  18  17     2.092063195068   118.22053012   192.97048505
 C     20  19  18     2.868942217328   126.37021604   177.49798959
 H     23  20  19     2.049895865114   109.28235715   260.53463502
 H     23  20  19     2.095104082221   102.22964076   137.97628954
 C     23  20  19     2.920619817245   117.22928886    21.30282386
 H     26  23  20     2.005807207894   112.55785091    40.70778748
 H     26  23  20     2.033077482955   110.97753083   293.91336116
 C     26  23  20     2.868592133698   112.95829048   158.96552119
 H     29  26  23     2.058274931769   114.71647951    60.92740782
 H     29  26  23     2.174616584117   105.67830826   299.26110767
 H     29  26  23     2.090038351404   114.34524659   178.47697778
 H      2   1   3     2.094891394823   120.10991333   188.88431684
 H     18  17   5     1.963873134428   119.58324544   177.01128782

---------------------
BASIS SET INFORMATION
---------------------
There are 3 groups of distinct atoms

 Group   1 Type S   : 10s7p1d contracted to 4s3p1d pattern {5311/511/1}
 Group   2 Type C   : 7s4p1d contracted to 3s2p1d pattern {511/31/1}
 Group   3 Type H   : 4s1p contracted to 2s1p pattern {31/1}

Atom   0S    basis set group =>   1
Atom   1C    basis set group =>   2
Atom   2C    basis set group =>   2
Atom   3C    basis set group =>   2
Atom   4C    basis set group =>   2
Atom   5H    basis set group =>   3
Atom   6C    basis set group =>   2
Atom   7H    basis set group =>   3
Atom   8H    basis set group =>   3
Atom   9C    basis set group =>   2
Atom  10H    basis set group =>   3
Atom  11H    basis set group =>   3
Atom  12C    basis set group =>   2
Atom  13H    basis set group =>   3
Atom  14H    basis set group =>   3
Atom  15H    basis set group =>   3
Atom  16S    basis set group =>   1
Atom  17C    basis set group =>   2
Atom  18C    basis set group =>   2
Atom  19C    basis set group =>   2
Atom  20C    basis set group =>   2
Atom  21H    basis set group =>   3
Atom  22C    basis set group =>   2
Atom  23H    basis set group =>   3
Atom  24H    basis set group =>   3
Atom  25C    basis set group =>   2
Atom  26H    basis set group =>   3
Atom  27H    basis set group =>   3
Atom  28C    basis set group =>   2
Atom  29H    basis set group =>   3
Atom  30H    basis set group =>   3
Atom  31H    basis set group =>   3
Atom  32H    basis set group =>   3
Atom  33H    basis set group =>   3


           ************************************************************
           *        Program running with 24 parallel MPI-processes    *
           *              working on a common directory               *
           ************************************************************
------------------------------------------------------------------------------
                           ORCA GTO INTEGRAL CALCULATION
------------------------------------------------------------------------------

                         BASIS SET STATISTICS AND STARTUP INFO

 # of primitive gaussian shells          ...  294
 # of primitive gaussian functions       ...  534
 # of contracted shells                  ...  154
 # of contracted basis functions         ...  322
 Highest angular momentum                ...    2
 Maximum contraction depth               ...    5
 Integral package used                   ... LIBINT
 Integral threshhold            Thresh   ...  1.000e-10
 Primitive cut-off              TCut     ...  1.000e-11


------------------------------ INTEGRAL EVALUATION ----------------------------


 * One electron integrals 
 Pre-screening matrix                    ... done
 Shell pair data                         ... done (   0.003 sec)



           ************************************************************
           *        Program running with 24 parallel MPI-processes    *
           *              working on a common directory               *
           ************************************************************
-------------------------------------------------------------------------------
                                 ORCA SCF
-------------------------------------------------------------------------------

------------
SCF SETTINGS
------------
Hamiltonian:
 Density Functional     Method          .... DFT(GTOs)
 Exchange Functional    Exchange        .... WB97X-D3
 Correlation Functional Correlation     .... WB97X-D3
 Gradients option       PostSCFGGA      .... off
 Hybrid DFT is turned on
   Fraction HF Exchange ScalHFX         ....  0.195728
   Scaling of DF-GGA-X  ScalDFX         ....  0.000000
   Scaling of DF-GGA-C  ScalDFC         ....  1.000000
   Scaling of DF-LDA-C  ScalLDAC        ....  1.000000
   Perturbative correction              ....  0.000000
   Density functional embedding theory  .... OFF
 Long-range corrected/Screened/Range-Separated Hybrid DFT is turned on
   Amount of maximum screened exact exchange              ....  0.804272
   Range separation parameter mu (erf(mu*r12)/r12)        ....  0.250000


General Settings:
 Integral files         IntName         .... config_4556
 Hartree-Fock type      HFTyp           .... RHF
 Total Charge           Charge          ....    0
 Multiplicity           Mult            ....    1
 Number of Electrons    NEL             ....  134
 Basis Dimension        Dim             ....  322
 Nuclear Repulsion      ENuc            ....   1267.3417149199 Eh

Convergence Acceleration:
 DIIS                   CNVDIIS         .... on
   Start iteration      DIISMaxIt       ....    12
   Startup error        DIISStart       ....  0.200000
   # of expansion vecs  DIISMaxEq       ....     5
   Bias factor          DIISBfac        ....   1.050
   Max. coefficient     DIISMaxC        ....  10.000
 Newton-Raphson         CNVNR           .... off
 SOSCF                  CNVSOSCF        .... on
   Start iteration      SOSCFMaxIt      ....   150
   Startup grad/error   SOSCFStart      ....  0.003300
 Level Shifting         CNVShift        .... on
   Level shift para.    LevelShift      ....    0.2500
   Turn off err/grad.   ShiftErr        ....    0.0010
 Zerner damping         CNVZerner       .... off
 Static damping         CNVDamp         .... on
   Fraction old density DampFac         ....    0.7000
   Max. Damping (<1)    DampMax         ....    0.9800
   Min. Damping (>=0)   DampMin         ....    0.0000
   Turn off err/grad.   DampErr         ....    0.1000
 Fernandez-Rico         CNVRico         .... off

SCF Procedure:
 Maximum # iterations   MaxIter         ....   125
 SCF integral mode      SCFMode         .... Direct
   Integral package                     .... LIBINT
 Reset frequency        DirectResetFreq ....    20
 Integral Threshold     Thresh          ....  1.000e-10 Eh
 Primitive CutOff       TCut            ....  1.000e-11 Eh

Convergence Tolerance:
 Convergence Check Mode ConvCheckMode   .... Total+1el-Energy
 Convergence forced     ConvForced      .... 0
 Energy Change          TolE            ....  1.000e-06 Eh
 1-El. energy change                    ....  1.000e-03 Eh
 Orbital Gradient       TolG            ....  5.000e-05
 Orbital Rotation angle TolX            ....  5.000e-05
 DIIS Error             TolErr          ....  1.000e-06


Diagonalization of the overlap matrix:
Smallest eigenvalue                        ... 5.661e-04
Time for diagonalization                   ...    0.015 sec
Threshold for overlap eigenvalues          ... 1.000e-08
Number of eigenvalues below threshold      ... 0
Time for construction of square roots      ...    0.027 sec
Total time needed                          ...    0.043 sec

-------------------
DFT GRID GENERATION
-------------------

General Integration Accuracy     IntAcc      ...  4.340
Radial Grid Type                 RadialGrid  ... Gauss-Chebyshev
Angular Grid (max. acc.)         AngularGrid ... Lebedev-110
Angular grid pruning method      GridPruning ... 3 (G Style)
Weight generation scheme         WeightScheme... Becke
Basis function cutoff            BFCut       ...    1.0000e-10
Integration weight cutoff        WCut        ...    1.0000e-14
Grids for H and He will be reduced by one unit

# of grid points (after initial pruning)     ...  41088 (   0.0 sec)
# of grid points (after weights+screening)   ...  37089 (   0.0 sec)
nearest neighbour list constructed           ...    0.0 sec
Grid point re-assignment to atoms done       ...    0.0 sec
Grid point division into batches done        ...    0.0 sec
Reduced shell lists constructed in    0.1 sec

Total number of grid points                  ...    37089
Total number of batches                      ...      596
Average number of points per batch           ...       62
Average number of grid points per atom       ...     1091
Average number of shells per batch           ...    78.12 (50.72%)
Average number of basis functions per batch  ...   154.96 (48.12%)
Average number of large shells per batch     ...    50.46 (64.60%)
Average number of large basis fcns per batch ...   102.69 (66.27%)
Maximum spatial batch extension              ...  16.29, 12.61, 16.48 au
Average spatial batch extension              ...   0.15,  0.14,  0.16 au

Time for grid setup =    0.154 sec

------------------------------
INITIAL GUESS: MODEL POTENTIAL
------------------------------
Loading Hartree-Fock densities                     ... done
Calculating cut-offs                               ... done
Setting up the integral package                    ... done
Initializing the effective Hamiltonian             ... done
Starting the Coulomb interaction                   ... done (   0.0 sec)
Reading the grid                                   ... done
Mapping shells                                     ... done
Starting the XC term evaluation                    ... done (   0.0 sec)
  promolecular density results
     # of electrons  =    133.990403496
     EX              =   -126.714654735
     EC              =     -4.621755299
     EX+EC           =   -131.336410034
Transforming the Hamiltonian                       ... done (   0.0 sec)
Diagonalizing the Hamiltonian                      ... done (   0.0 sec)
Back transforming the eigenvectors                 ... done (   0.0 sec)
Now organizing SCF variables                       ... done
                      ------------------
                      INITIAL GUESS DONE (   0.3 sec)
                      ------------------
--------------
SCF ITERATIONS
--------------
ITER       Energy         Delta-E        Max-DP      RMS-DP      [F,P]     Damp
               ***  Starting incremental Fock matrix formation  ***
  0  -1339.4312020081   0.000000000000 0.06449031  0.00153891  0.1574004 0.7000
  1  -1339.6142289468  -0.183026938767 0.04343801  0.00113753  0.0949693 0.7000
                               ***Turning on DIIS***
  2  -1339.7048283568  -0.090599409922 0.09200501  0.00219201  0.0488879 0.0000
  3  -1339.8416885911  -0.136860234326 0.04506979  0.00089241  0.0365043 0.0000
  4  -1339.8700387934  -0.028350202304 0.00731467  0.00021008  0.0076014 0.0000
                      *** Initiating the SOSCF procedure ***
                           *** Shutting down DIIS ***
                      *** Re-Reading the Fockian *** 
                      *** Removing any level shift *** 
ITER      Energy       Delta-E        Grad      Rot      Max-DP    RMS-DP
  5  -1339.87103504  -0.0009962482  0.001896  0.001896  0.004237  0.000105
               *** Restarting incremental Fock matrix formation ***
  6  -1339.87122802  -0.0001929819  0.001599  0.004458  0.002941  0.000064
  7  -1339.87129632  -0.0000682981  0.000701  0.004837  0.003492  0.000068
  8  -1339.87131580  -0.0000194830  0.000283  0.000522  0.000772  0.000020
  9  -1339.87131999  -0.0000041863  0.000107  0.000317  0.000229  0.000007
                 **** Energy Check signals convergence ****
              ***Rediagonalizing the Fockian in SOSCF/NRSCF***

               *****************************************************
               *                     SUCCESS                       *
               *           SCF CONVERGED AFTER  10 CYCLES          *
               *****************************************************

Setting up the final grid:

General Integration Accuracy     IntAcc      ...  4.670
Radial Grid Type                 RadialGrid  ... Gauss-Chebyshev
Angular Grid (max. acc.)         AngularGrid ... Lebedev-302
Angular grid pruning method      GridPruning ... 3 (G Style)
Weight generation scheme         WeightScheme... Becke
Basis function cutoff            BFCut       ...    1.0000e-10
Integration weight cutoff        WCut        ...    1.0000e-14
Grids for H and He will be reduced by one unit

# of grid points (after initial pruning)     ... 161752 (   0.0 sec)
# of grid points (after weights+screening)   ... 143355 (   0.1 sec)
nearest neighbour list constructed           ...    0.0 sec
Grid point re-assignment to atoms done       ...    0.0 sec
Grid point division into batches done        ...    0.5 sec
Reduced shell lists constructed in    0.5 sec

Total number of grid points                  ...   143355
Total number of batches                      ...     2257
Average number of points per batch           ...       63
Average number of grid points per atom       ...     4216
Average number of shells per batch           ...    72.32 (46.96%)
Average number of basis functions per batch  ...   141.93 (44.08%)
Average number of large shells per batch     ...    45.39 (62.75%)
Average number of large basis fcns per batch ...    91.11 (64.20%)
Maximum spatial batch extension              ...  13.25, 13.14, 10.67 au
Average spatial batch extension              ...   0.10,  0.10,  0.09 au

Final grid set up in    0.8 sec
Final integration                            ... done (   0.3 sec)
Change in XC energy                          ...     0.007976450
Integrated number of electrons               ...   133.999818723
Previous integrated no of electrons          ...   134.000928504

----------------
TOTAL SCF ENERGY
----------------

Total Energy       :        -1339.86334386 Eh          -36459.53515 eV

Components:
Nuclear Repulsion  :         1267.34171492 Eh           34486.12130 eV
Electronic Energy  :        -2607.20505878 Eh          -70945.65646 eV
One Electron Energy:        -4351.33252235 Eh         -118405.77757 eV
Two Electron Energy:         1744.12746357 Eh           47460.12111 eV

Virial components:
Potential Energy   :        -2671.31486243 Eh          -72690.17290 eV
Kinetic Energy     :         1331.45151857 Eh           36230.63775 eV
Virial Ratio       :            2.00631779


DFT components:
N(Alpha)           :       66.999909361518 electrons
N(Beta)            :       66.999909361518 electrons
N(Total)           :      133.999818723037 electrons
E(XC)              :      -94.239203783404 Eh       
DFET-embed. en.    :        0.000000000000 Eh       

---------------
SCF CONVERGENCE
---------------

  Last Energy change         ...   -3.1856e-07  Tolerance :   1.0000e-06
  Last MAX-Density change    ...    1.3569e-04  Tolerance :   1.0000e-05
  Last RMS-Density change    ...    3.2542e-06  Tolerance :   1.0000e-06
  Last Orbital Gradient      ...    6.5127e-05  Tolerance :   5.0000e-05
  Last Orbital Rotation      ...    1.3217e-04  Tolerance :   5.0000e-05

             **** THE GBW FILE WAS UPDATED (config_4556.gbw) ****
             **** DENSITY FILE WAS UPDATED (config_4556.scfp) ****
             **** ENERGY FILE WAS UPDATED (config_4556.en.tmp) ****
             **** THE GBW FILE WAS UPDATED (config_4556.gbw) ****
             **** DENSITY FILE WAS UPDATED (config_4556.scfp) ****
----------------
ORBITAL ENERGIES
----------------

  NO   OCC          E(Eh)            E(eV) 
   0   2.0000     -88.972356     -2421.0609 
   1   2.0000     -88.961911     -2420.7767 
   2   2.0000     -10.327645      -281.0295 
   3   2.0000     -10.320790      -280.8430 
   4   2.0000     -10.315070      -280.6873 
   5   2.0000     -10.312751      -280.6242 
   6   2.0000     -10.302490      -280.3450 
   7   2.0000     -10.300783      -280.2986 
   8   2.0000     -10.299709      -280.2693 
   9   2.0000     -10.295940      -280.1668 
  10   2.0000     -10.294089      -280.1164 
  11   2.0000     -10.292438      -280.0715 
  12   2.0000     -10.284880      -279.8658 
  13   2.0000     -10.284731      -279.8618 
  14   2.0000     -10.282439      -279.7994 
  15   2.0000     -10.280053      -279.7345 
  16   2.0000      -8.086245      -220.0379 
  17   2.0000      -8.076790      -219.7806 
  18   2.0000      -6.044842      -164.4885 
  19   2.0000      -6.040913      -164.3816 
  20   2.0000      -6.036924      -164.2730 
  21   2.0000      -6.035336      -164.2298 
  22   2.0000      -6.031400      -164.1227 
  23   2.0000      -6.027394      -164.0137 
  24   2.0000      -1.004835       -27.3430 
  25   2.0000      -0.982096       -26.7242 
  26   2.0000      -0.921083       -25.0639 
  27   2.0000      -0.908759       -24.7286 
  28   2.0000      -0.871654       -23.7189 
  29   2.0000      -0.854967       -23.2648 
  30   2.0000      -0.847804       -23.0699 
  31   2.0000      -0.808488       -22.0001 
  32   2.0000      -0.781806       -21.2740 
  33   2.0000      -0.770835       -20.9755 
  34   2.0000      -0.708605       -19.2821 
  35   2.0000      -0.702058       -19.1040 
  36   2.0000      -0.690468       -18.7886 
  37   2.0000      -0.657180       -17.8828 
  38   2.0000      -0.637220       -17.3396 
  39   2.0000      -0.612743       -16.6736 
  40   2.0000      -0.596441       -16.2300 
  41   2.0000      -0.575063       -15.6483 
  42   2.0000      -0.571191       -15.5429 
  43   2.0000      -0.560791       -15.2599 
  44   2.0000      -0.528085       -14.3699 
  45   2.0000      -0.522134       -14.2080 
  46   2.0000      -0.518304       -14.1038 
  47   2.0000      -0.511127       -13.9085 
  48   2.0000      -0.503601       -13.7037 
  49   2.0000      -0.499321       -13.5872 
  50   2.0000      -0.486151       -13.2288 
  51   2.0000      -0.474156       -12.9024 
  52   2.0000      -0.473265       -12.8782 
  53   2.0000      -0.467936       -12.7332 
  54   2.0000      -0.459661       -12.5080 
  55   2.0000      -0.451429       -12.2840 
  56   2.0000      -0.445488       -12.1223 
  57   2.0000      -0.436770       -11.8851 
  58   2.0000      -0.432438       -11.7672 
  59   2.0000      -0.423867       -11.5340 
  60   2.0000      -0.422672       -11.5015 
  61   2.0000      -0.414909       -11.2902 
  62   2.0000      -0.407584       -11.0909 
  63   2.0000      -0.351641        -9.5686 
  64   2.0000      -0.331486        -9.0202 
  65   2.0000      -0.328403        -8.9363 
  66   2.0000      -0.285849        -7.7783 
  67   0.0000       0.027313         0.7432 
  68   0.0000       0.071752         1.9525 
  69   0.0000       0.107474         2.9245 
  70   0.0000       0.109777         2.9872 
  71   0.0000       0.131479         3.5777 
  72   0.0000       0.143433         3.9030 
  73   0.0000       0.147144         4.0040 
  74   0.0000       0.151998         4.1361 
  75   0.0000       0.164968         4.4890 
  76   0.0000       0.166698         4.5361 
  77   0.0000       0.178253         4.8505 
  78   0.0000       0.187610         5.1051 
  79   0.0000       0.193036         5.2528 
  80   0.0000       0.199137         5.4188 
  81   0.0000       0.199756         5.4356 
  82   0.0000       0.212520         5.7830 
  83   0.0000       0.212766         5.7896 
  84   0.0000       0.218540         5.9468 
  85   0.0000       0.231631         6.3030 
  86   0.0000       0.238363         6.4862 
  87   0.0000       0.242736         6.6052 
  88   0.0000       0.249769         6.7966 
  89   0.0000       0.253830         6.9071 
  90   0.0000       0.258928         7.0458 
  91   0.0000       0.267009         7.2657 
  92   0.0000       0.273319         7.4374 
  93   0.0000       0.305607         8.3160 
  94   0.0000       0.309952         8.4342 
  95   0.0000       0.313709         8.5364 
  96   0.0000       0.320203         8.7132 
  97   0.0000       0.339018         9.2252 
  98   0.0000       0.345596         9.4042 
  99   0.0000       0.376437        10.2434 
 100   0.0000       0.378890        10.3101 
 101   0.0000       0.384506        10.4629 
 102   0.0000       0.406647        11.0654 
 103   0.0000       0.428067        11.6483 
 104   0.0000       0.444056        12.0834 
 105   0.0000       0.449383        12.2283 
 106   0.0000       0.463446        12.6110 
 107   0.0000       0.479776        13.0554 
 108   0.0000       0.493082        13.4174 
 109   0.0000       0.504909        13.7393 
 110   0.0000       0.510810        13.8998 
 111   0.0000       0.511844        13.9280 
 112   0.0000       0.515523        14.0281 
 113   0.0000       0.524895        14.2831 
 114   0.0000       0.528269        14.3749 
 115   0.0000       0.537443        14.6246 
 116   0.0000       0.543139        14.7796 
 117   0.0000       0.552181        15.0256 
 118   0.0000       0.556465        15.1422 
 119   0.0000       0.560406        15.2494 
 120   0.0000       0.577346        15.7104 
 121   0.0000       0.583396        15.8750 
 122   0.0000       0.603382        16.4189 
 123   0.0000       0.611173        16.6309 
 124   0.0000       0.615836        16.7578 
 125   0.0000       0.620129        16.8746 
 126   0.0000       0.634154        17.2562 
 127   0.0000       0.652905        17.7665 
 128   0.0000       0.657970        17.9043 
 129   0.0000       0.660806        17.9814 
 130   0.0000       0.677413        18.4333 
 131   0.0000       0.677585        18.4380 
 132   0.0000       0.683658        18.6033 
 133   0.0000       0.692412        18.8415 
 134   0.0000       0.698907        19.0182 
 135   0.0000       0.705785        19.2054 
 136   0.0000       0.717045        19.5118 
 137   0.0000       0.722060        19.6482 
 138   0.0000       0.727269        19.7900 
 139   0.0000       0.744264        20.2524 
 140   0.0000       0.746446        20.3118 
 141   0.0000       0.749227        20.3875 
 142   0.0000       0.754784        20.5387 
 143   0.0000       0.756008        20.5720 
 144   0.0000       0.765185        20.8217 
 145   0.0000       0.770828        20.9753 
 146   0.0000       0.772564        21.0225 
 147   0.0000       0.775707        21.1081 
 148   0.0000       0.777343        21.1526 
 149   0.0000       0.782884        21.3034 
 150   0.0000       0.787838        21.4382 
 151   0.0000       0.788556        21.4577 
 152   0.0000       0.792560        21.5667 
 153   0.0000       0.796728        21.6801 
 154   0.0000       0.799743        21.7621 
 155   0.0000       0.803397        21.8615 
 156   0.0000       0.810414        22.0525 
 157   0.0000       0.814327        22.1590 
 158   0.0000       0.815693        22.1961 
 159   0.0000       0.820767        22.3342 
 160   0.0000       0.823328        22.4039 
 161   0.0000       0.830162        22.5898 
 162   0.0000       0.834759        22.7149 
 163   0.0000       0.842174        22.9167 
 164   0.0000       0.855149        23.2698 
 165   0.0000       0.857222        23.3262 
 166   0.0000       0.866645        23.5826 
 167   0.0000       0.867059        23.5939 
 168   0.0000       0.882797        24.0221 
 169   0.0000       0.889934        24.2163 
 170   0.0000       0.894912        24.3518 
 171   0.0000       0.925350        25.1801 
 172   0.0000       0.937666        25.5152 
 173   0.0000       0.947046        25.7704 
 174   0.0000       0.964807        26.2537 
 175   0.0000       0.984183        26.7810 
 176   0.0000       0.995389        27.0859 
 177   0.0000       1.002112        27.2688 
 178   0.0000       1.009350        27.4658 
 179   0.0000       1.032866        28.1057 
 180   0.0000       1.057649        28.7801 
 181   0.0000       1.070923        29.1413 
 182   0.0000       1.088988        29.6329 
 183   0.0000       1.094774        29.7903 
 184   0.0000       1.114566        30.3289 
 185   0.0000       1.139922        31.0189 
 186   0.0000       1.148476        31.2516 
 187   0.0000       1.150426        31.3047 
 188   0.0000       1.191906        32.4334 
 189   0.0000       1.197604        32.5885 
 190   0.0000       1.216603        33.1055 
 191   0.0000       1.237053        33.6619 
 192   0.0000       1.250503        34.0279 
 193   0.0000       1.266833        34.4723 
 194   0.0000       1.287831        35.0437 
 195   0.0000       1.299016        35.3480 
 196   0.0000       1.310276        35.6544 
 197   0.0000       1.322724        35.9931 
 198   0.0000       1.351596        36.7788 
 199   0.0000       1.360019        37.0080 
 200   0.0000       1.377673        37.4884 
 201   0.0000       1.411157        38.3995 
 202   0.0000       1.435011        39.0486 
 203   0.0000       1.440203        39.1899 
 204   0.0000       1.472081        40.0574 
 205   0.0000       1.482786        40.3486 
 206   0.0000       1.498339        40.7719 
 207   0.0000       1.502215        40.8774 
 208   0.0000       1.517956        41.3057 
 209   0.0000       1.538700        41.8702 
 210   0.0000       1.566481        42.6261 
 211   0.0000       1.576327        42.8940 
 212   0.0000       1.611776        43.8586 
 213   0.0000       1.623324        44.1729 
 214   0.0000       1.629264        44.3345 
 215   0.0000       1.649888        44.8957 
 216   0.0000       1.684138        45.8277 
 217   0.0000       1.688624        45.9498 
 218   0.0000       1.745084        47.4862 
 219   0.0000       1.779382        48.4194 
 220   0.0000       1.790982        48.7351 
 221   0.0000       1.797590        48.9149 
 222   0.0000       1.799577        48.9690 
 223   0.0000       1.809372        49.2355 
 224   0.0000       1.822369        49.5892 
 225   0.0000       1.836098        49.9628 
 226   0.0000       1.846061        50.2339 
 227   0.0000       1.853285        50.4305 
 228   0.0000       1.858505        50.5725 
 229   0.0000       1.867931        50.8290 
 230   0.0000       1.870526        50.8996 
 231   0.0000       1.873942        50.9926 
 232   0.0000       1.879102        51.1330 
 233   0.0000       1.883128        51.2425 
 234   0.0000       1.901785        51.7502 
 235   0.0000       1.907760        51.9128 
 236   0.0000       1.912445        52.0403 
 237   0.0000       1.921814        52.2952 
 238   0.0000       1.939568        52.7783 
 239   0.0000       1.945135        52.9298 
 240   0.0000       1.949315        53.0435 
 241   0.0000       1.950916        53.0871 
 242   0.0000       1.960836        53.3571 
 243   0.0000       1.969531        53.5937 
 244   0.0000       1.986165        54.0463 
 245   0.0000       1.988238        54.1027 
 246   0.0000       2.011207        54.7277 
 247   0.0000       2.021891        55.0184 
 248   0.0000       2.025112        55.1061 
 249   0.0000       2.027753        55.1780 
 250   0.0000       2.043100        55.5956 
 251   0.0000       2.052747        55.8581 
 252   0.0000       2.058533        56.0155 
 253   0.0000       2.072485        56.3952 
 254   0.0000       2.096710        57.0544 
 255   0.0000       2.116886        57.6034 
 256   0.0000       2.121556        57.7305 
 257   0.0000       2.123661        57.7878 
 258   0.0000       2.140757        58.2530 
 259   0.0000       2.149161        58.4817 
 260   0.0000       2.166784        58.9612 
 261   0.0000       2.177711        59.2585 
 262   0.0000       2.183646        59.4200 
 263   0.0000       2.189976        59.5923 
 264   0.0000       2.223673        60.5092 
 265   0.0000       2.247292        61.1519 
 266   0.0000       2.272421        61.8357 
 267   0.0000       2.276975        61.9597 
 268   0.0000       2.291165        62.3458 
 269   0.0000       2.294874        62.4467 
 270   0.0000       2.314251        62.9740 
 271   0.0000       2.318055        63.0775 
 272   0.0000       2.376904        64.6789 
 273   0.0000       2.399478        65.2931 
 274   0.0000       2.407525        65.5121 
 275   0.0000       2.417996        65.7970 
 276   0.0000       2.429951        66.1223 
 277   0.0000       2.446264        66.5662 
 278   0.0000       2.463713        67.0410 
 279   0.0000       2.476594        67.3915 
 280   0.0000       2.489695        67.7481 
 281   0.0000       2.494645        67.8827 
 282   0.0000       2.498794        67.9956 
 283   0.0000       2.518205        68.5238 
 284   0.0000       2.523450        68.6666 
 285   0.0000       2.545554        69.2680 
 286   0.0000       2.558984        69.6335 
 287   0.0000       2.570965        69.9595 
 288   0.0000       2.592431        70.5436 
 289   0.0000       2.632650        71.6380 
 290   0.0000       2.640721        71.8577 
 291   0.0000       2.666090        72.5480 
 292   0.0000       2.671057        72.6832 
 293   0.0000       2.705061        73.6084 
 294   0.0000       2.710934        73.7683 
 295   0.0000       2.720980        74.0416 
 296   0.0000       2.731456        74.3267 
 297   0.0000       2.747842        74.7726 
 298   0.0000       2.788071        75.8673 
 299   0.0000       2.811323        76.5000 
 300   0.0000       2.824676        76.8633 
 301   0.0000       2.862054        77.8804 
 302   0.0000       2.865780        77.9818 
 303   0.0000       2.911153        79.2165 
 304   0.0000       2.953676        80.3736 
 305   0.0000       2.975055        80.9554 
 306   0.0000       2.983603        81.1880 
 307   0.0000       2.987121        81.2837 
 308   0.0000       3.003646        81.7334 
 309   0.0000       3.037952        82.6669 
 310   0.0000       3.048745        82.9606 
 311   0.0000       3.072256        83.6003 
 312   0.0000       3.090155        84.0874 
 313   0.0000       3.110876        84.6512 
 314   0.0000       3.126412        85.0740 
 315   0.0000       3.139799        85.4383 
 316   0.0000       3.157575        85.9220 
 317   0.0000       3.195612        86.9570 
 318   0.0000       3.258320        88.6634 
 319   0.0000       3.273505        89.0766 
 320   0.0000       3.381988        92.0286 
 321   0.0000       3.418218        93.0144 

                    ********************************
                    * MULLIKEN POPULATION ANALYSIS *
                    ********************************

-----------------------
MULLIKEN ATOMIC CHARGES
-----------------------
   0 S :    0.124606
   1 C :   -0.160865
   2 C :   -0.027462
   3 C :   -0.022096
   4 C :   -0.119767
   5 H :    0.019226
   6 C :    0.063171
   7 H :    0.033247
   8 H :    0.027371
   9 C :   -0.132415
  10 H :    0.018855
  11 H :    0.035277
  12 C :   -0.008278
  13 H :    0.040624
  14 H :    0.012359
  15 H :    0.048905
  16 S :    0.090694
  17 C :   -0.069508
  18 C :   -0.043841
  19 C :   -0.081210
  20 C :   -0.147232
  21 H :    0.033922
  22 C :    0.057433
  23 H :    0.045483
  24 H :    0.050924
  25 C :   -0.063188
  26 H :    0.010465
  27 H :    0.017500
  28 C :   -0.064635
  29 H :    0.030769
  30 H :    0.047183
  31 H :    0.036486
  32 H :    0.059485
  33 H :    0.036509
Sum of atomic charges:   -0.0000000

--------------------------------
MULLIKEN REDUCED ORBITAL CHARGES
--------------------------------
  0 S s       :     5.840391  s :     5.840391
      pz      :     3.319178  p :     9.929267
      px      :     3.656168
      py      :     2.953921
      dz2     :     0.013487  d :     0.105737
      dxz     :     0.010423
      dyz     :     0.047113
      dx2y2   :     0.011777
      dxy     :     0.022936
  1 C s       :     3.189865  s :     3.189865
      pz      :     0.946165  p :     2.935660
      px      :     1.104391
      py      :     0.885104
      dz2     :     0.007810  d :     0.035340
      dxz     :     0.007327
      dyz     :     0.012275
      dx2y2   :     0.004316
      dxy     :     0.003613
  2 C s       :     3.045723  s :     3.045723
      pz      :     0.955145  p :     2.938032
      px      :     0.996895
      py      :     0.985992
      dz2     :     0.012405  d :     0.043706
      dxz     :     0.007556
      dyz     :     0.011071
      dx2y2   :     0.005882
      dxy     :     0.006793
  3 C s       :     3.229004  s :     3.229004
      pz      :     0.855405  p :     2.759453
      px      :     0.998728
      py      :     0.905321
      dz2     :     0.007421  d :     0.033638
      dxz     :     0.004218
      dyz     :     0.010856
      dx2y2   :     0.004963
      dxy     :     0.006180
  4 C s       :     3.062991  s :     3.062991
      pz      :     0.932180  p :     3.013042
      px      :     1.098428
      py      :     0.982435
      dz2     :     0.008834  d :     0.043733
      dxz     :     0.006902
      dyz     :     0.015527
      dx2y2   :     0.006157
      dxy     :     0.006312
  5 H s       :     0.957140  s :     0.957140
      pz      :     0.011388  p :     0.023634
      px      :     0.005607
      py      :     0.006640
  6 C s       :     2.968996  s :     2.968996
      pz      :     0.965114  p :     2.930296
      px      :     1.014204
      py      :     0.950977
      dz2     :     0.007295  d :     0.037537
      dxz     :     0.004464
      dyz     :     0.010272
      dx2y2   :     0.005425
      dxy     :     0.010081
  7 H s       :     0.944892  s :     0.944892
      pz      :     0.003850  p :     0.021861
      px      :     0.010840
      py      :     0.007171
  8 H s       :     0.951843  s :     0.951843
      pz      :     0.010048  p :     0.020785
      px      :     0.004328
      py      :     0.006409
  9 C s       :     3.087080  s :     3.087080
      pz      :     1.002797  p :     3.005367
      px      :     1.019362
      py      :     0.983208
      dz2     :     0.009463  d :     0.039968
      dxz     :     0.003261
      dyz     :     0.009602
      dx2y2   :     0.007077
      dxy     :     0.010565
 10 H s       :     0.958984  s :     0.958984
      pz      :     0.011222  p :     0.022161
      px      :     0.004624
      py      :     0.006316
 11 H s       :     0.943199  s :     0.943199
      pz      :     0.003902  p :     0.021524
      px      :     0.011517
      py      :     0.006106
 12 C s       :     2.994066  s :     2.994066
      pz      :     0.988926  p :     2.985723
      px      :     1.006318
      py      :     0.990479
      dz2     :     0.008724  d :     0.028490
      dxz     :     0.001590
      dyz     :     0.006590
      dx2y2   :     0.005171
      dxy     :     0.006415
 13 H s       :     0.937744  s :     0.937744
      pz      :     0.011664  p :     0.021632
      px      :     0.004673
      py      :     0.005294
 14 H s       :     0.961479  s :     0.961479
      pz      :     0.005597  p :     0.026162
      px      :     0.014372
      py      :     0.006192
 15 H s       :     0.928784  s :     0.928784
      pz      :     0.004190  p :     0.022312
      px      :     0.008490
      py      :     0.009632
 16 S s       :     5.845680  s :     5.845680
      pz      :     3.558048  p :     9.959278
      px      :     3.400614
      py      :     3.000616
      dz2     :     0.010772  d :     0.104347
      dxz     :     0.012821
      dyz     :     0.028938
      dx2y2   :     0.016779
      dxy     :     0.035038
 17 C s       :     3.136410  s :     3.136410
      pz      :     1.023081  p :     2.897528
      px      :     0.993838
      py      :     0.880609
      dz2     :     0.005877  d :     0.035569
      dxz     :     0.005060
      dyz     :     0.006162
      dx2y2   :     0.008006
      dxy     :     0.010464
 18 C s       :     3.196369  s :     3.196369
      pz      :     1.014676  p :     2.814046
      px      :     0.889094
      py      :     0.910276
      dz2     :     0.003813  d :     0.033425
      dxz     :     0.004991
      dyz     :     0.005326
      dx2y2   :     0.010114
      dxy     :     0.009180
 19 C s       :     3.082354  s :     3.082354
      pz      :     0.986845  p :     2.955737
      px      :     1.022626
      py      :     0.946267
      dz2     :     0.006861  d :     0.043119
      dxz     :     0.006047
      dyz     :     0.008363
      dx2y2   :     0.010495
      dxy     :     0.011353
 20 C s       :     3.063783  s :     3.063783
      pz      :     1.096027  p :     3.038528
      px      :     0.966578
      py      :     0.975923
      dz2     :     0.006830  d :     0.044921
      dxz     :     0.005196
      dyz     :     0.007690
      dx2y2   :     0.010543
      dxy     :     0.014662
 21 H s       :     0.943448  s :     0.943448
      pz      :     0.005597  p :     0.022630
      px      :     0.007161
      py      :     0.009871
 22 C s       :     2.958586  s :     2.958586
      pz      :     0.990961  p :     2.949374
      px      :     0.921813
      py      :     1.036599
      dz2     :     0.006525  d :     0.034608
      dxz     :     0.006146
      dyz     :     0.008112
      dx2y2   :     0.005917
      dxy     :     0.007908
 23 H s       :     0.931202  s :     0.931202
      pz      :     0.012886  p :     0.023315
      px      :     0.004703
      py      :     0.005726
 24 H s       :     0.926304  s :     0.926304
      pz      :     0.009024  p :     0.022772
      px      :     0.004439
      py      :     0.009310
 25 C s       :     3.010766  s :     3.010766
      pz      :     1.060633  p :     3.015004
      px      :     0.966192
      py      :     0.988180
      dz2     :     0.004104  d :     0.037417
      dxz     :     0.004430
      dyz     :     0.012167
      dx2y2   :     0.007604
      dxy     :     0.009113
 26 H s       :     0.964793  s :     0.964793
      pz      :     0.011811  p :     0.024742
      px      :     0.004396
      py      :     0.008535
 27 H s       :     0.958692  s :     0.958692
      pz      :     0.010681  p :     0.023808
      px      :     0.003663
      py      :     0.009464
 28 C s       :     3.043798  s :     3.043798
      pz      :     1.011493  p :     2.992789
      px      :     0.967217
      py      :     1.014079
      dz2     :     0.005278  d :     0.028048
      dxz     :     0.002214
      dyz     :     0.008765
      dx2y2   :     0.004378
      dxy     :     0.007414
 29 H s       :     0.945263  s :     0.945263
      pz      :     0.010499  p :     0.023968
      px      :     0.004578
      py      :     0.008891
 30 H s       :     0.932031  s :     0.932031
      pz      :     0.010758  p :     0.020786
      px      :     0.003706
      py      :     0.006322
 31 H s       :     0.940732  s :     0.940732
      pz      :     0.005072  p :     0.022781
      px      :     0.010440
      py      :     0.007269
 32 H s       :     0.917596  s :     0.917596
      pz      :     0.003700  p :     0.022919
      px      :     0.005520
      py      :     0.013699
 33 H s       :     0.937931  s :     0.937931
      pz      :     0.005492  p :     0.025560
      px      :     0.006179
      py      :     0.013889


                     *******************************
                     * LOEWDIN POPULATION ANALYSIS *
                     *******************************

----------------------
LOEWDIN ATOMIC CHARGES
----------------------
   0 S :    0.415761
   1 C :   -0.204068
   2 C :   -0.065104
   3 C :   -0.055425
   4 C :   -0.190214
   5 H :    0.029375
   6 C :   -0.040653
   7 H :    0.037251
   8 H :    0.030746
   9 C :   -0.053980
  10 H :    0.024282
  11 H :    0.025481
  12 C :   -0.060748
  13 H :    0.033341
  14 H :    0.015103
  15 H :    0.036154
  16 S :    0.393773
  17 C :   -0.174527
  18 C :   -0.074825
  19 C :   -0.059347
  20 C :   -0.188348
  21 H :    0.037309
  22 C :   -0.033825
  23 H :    0.031194
  24 H :    0.038778
  25 C :   -0.049491
  26 H :    0.019675
  27 H :    0.018874
  28 C :   -0.067099
  29 H :    0.021034
  30 H :    0.037246
  31 H :    0.029087
  32 H :    0.029666
  33 H :    0.013524

-------------------------------
LOEWDIN REDUCED ORBITAL CHARGES
-------------------------------
  0 S s       :     5.511870  s :     5.511870
      pz      :     3.359900  p :     9.942120
      px      :     3.615708
      py      :     2.966512
      dz2     :     0.014073  d :     0.130249
      dxz     :     0.010560
      dyz     :     0.061375
      dx2y2   :     0.015909
      dxy     :     0.028333
  1 C s       :     2.926885  s :     2.926885
      pz      :     1.058110  p :     3.193034
      px      :     1.109383
      py      :     1.025541
      dz2     :     0.021699  d :     0.084150
      dxz     :     0.014911
      dyz     :     0.031716
      dx2y2   :     0.008849
      dxy     :     0.006975
  2 C s       :     2.856872  s :     2.856872
      pz      :     1.064722  p :     3.098382
      px      :     0.982525
      py      :     1.051135
      dz2     :     0.034821  d :     0.109850
      dxz     :     0.015711
      dyz     :     0.030266
      dx2y2   :     0.015679
      dxy     :     0.013374
  3 C s       :     2.873777  s :     2.873777
      pz      :     1.046556  p :     3.093368
      px      :     1.012008
      py      :     1.034804
      dz2     :     0.022426  d :     0.088281
      dxz     :     0.008632
      dyz     :     0.031023
      dx2y2   :     0.013197
      dxy     :     0.013003
  4 C s       :     2.910794  s :     2.910794
      pz      :     1.051913  p :     3.176085
      px      :     1.075817
      py      :     1.048356
      dz2     :     0.022732  d :     0.103335
      dxz     :     0.013534
      dyz     :     0.038565
      dx2y2   :     0.014825
      dxy     :     0.013679
  5 H s       :     0.900581  s :     0.900581
      pz      :     0.032661  p :     0.070044
      px      :     0.016883
      py      :     0.020501
  6 C s       :     2.833188  s :     2.833188
      pz      :     1.024172  p :     3.113385
      px      :     1.056411
      py      :     1.032802
      dz2     :     0.018917  d :     0.094080
      dxz     :     0.009353
      dyz     :     0.027758
      dx2y2   :     0.011670
      dxy     :     0.026382
  7 H s       :     0.901264  s :     0.901264
      pz      :     0.010978  p :     0.061485
      px      :     0.030351
      py      :     0.020156
  8 H s       :     0.909280  s :     0.909280
      pz      :     0.028603  p :     0.059974
      px      :     0.012840
      py      :     0.018531
  9 C s       :     2.831928  s :     2.831928
      pz      :     1.040303  p :     3.125069
      px      :     1.050243
      py      :     1.034523
      dz2     :     0.022410  d :     0.096983
      dxz     :     0.006621
      dyz     :     0.024940
      dx2y2   :     0.015754
      dxy     :     0.027260
 10 H s       :     0.912995  s :     0.912995
      pz      :     0.032274  p :     0.062723
      px      :     0.012878
      py      :     0.017570
 11 H s       :     0.910436  s :     0.910436
      pz      :     0.012028  p :     0.064083
      px      :     0.033579
      py      :     0.018476
 12 C s       :     2.833109  s :     2.833109
      pz      :     1.040061  p :     3.154612
      px      :     1.070966
      py      :     1.043585
      dz2     :     0.021241  d :     0.073027
      dxz     :     0.003680
      dyz     :     0.017926
      dx2y2   :     0.013280
      dxy     :     0.016900
 13 H s       :     0.908294  s :     0.908294
      pz      :     0.032674  p :     0.058365
      px      :     0.010670
      py      :     0.015021
 14 H s       :     0.908971  s :     0.908971
      pz      :     0.016541  p :     0.075927
      px      :     0.041269
      py      :     0.018116
 15 H s       :     0.902358  s :     0.902358
      pz      :     0.011966  p :     0.061488
      px      :     0.022058
      py      :     0.027463
 16 S s       :     5.513780  s :     5.513780
      pz      :     3.543259  p :     9.964629
      px      :     3.415726
      py      :     3.005644
      dz2     :     0.012119  d :     0.127819
      dxz     :     0.013644
      dyz     :     0.036501
      dx2y2   :     0.020232
      dxy     :     0.045322
 17 C s       :     2.921750  s :     2.921750
      pz      :     1.054651  p :     3.168013
      px      :     1.083732
      py      :     1.029630
      dz2     :     0.012217  d :     0.084764
      dxz     :     0.011558
      dyz     :     0.014027
      dx2y2   :     0.021070
      dxy     :     0.025892
 18 C s       :     2.881044  s :     2.881044
      pz      :     1.031709  p :     3.107956
      px      :     1.046476
      py      :     1.029771
      dz2     :     0.007641  d :     0.085826
      dxz     :     0.012444
      dyz     :     0.011739
      dx2y2   :     0.029051
      dxy     :     0.024950
 19 C s       :     2.860791  s :     2.860791
      pz      :     1.008953  p :     3.091442
      px      :     1.034641
      py      :     1.047848
      dz2     :     0.013870  d :     0.107114
      dxz     :     0.014951
      dyz     :     0.019346
      dx2y2   :     0.029543
      dxy     :     0.029403
 20 C s       :     2.902143  s :     2.902143
      pz      :     1.088571  p :     3.177703
      px      :     1.048712
      py      :     1.040420
      dz2     :     0.014127  d :     0.108501
      dxz     :     0.012911
      dyz     :     0.018574
      dx2y2   :     0.027571
      dxy     :     0.035318
 21 H s       :     0.895817  s :     0.895817
      pz      :     0.016848  p :     0.066874
      px      :     0.020719
      py      :     0.029307
 22 C s       :     2.830401  s :     2.830401
      pz      :     1.050463  p :     3.116536
      px      :     1.005760
      py      :     1.060313
      dz2     :     0.017035  d :     0.086888
      dxz     :     0.014305
      dyz     :     0.020512
      dx2y2   :     0.014094
      dxy     :     0.020942
 23 H s       :     0.898971  s :     0.898971
      pz      :     0.036899  p :     0.069834
      px      :     0.015296
      py      :     0.017639
 24 H s       :     0.895008  s :     0.895008
      pz      :     0.025528  p :     0.066213
      px      :     0.013436
      py      :     0.027249
 25 C s       :     2.819334  s :     2.819334
      pz      :     1.096388  p :     3.138770
      px      :     1.008261
      py      :     1.034120
      dz2     :     0.011053  d :     0.091387
      dxz     :     0.008367
      dyz     :     0.029746
      dx2y2   :     0.017104
      dxy     :     0.025117
 26 H s       :     0.906155  s :     0.906155
      pz      :     0.032533  p :     0.074170
      px      :     0.015717
      py      :     0.025921
 27 H s       :     0.909815  s :     0.909815
      pz      :     0.028445  p :     0.071311
      px      :     0.014210
      py      :     0.028655
 28 C s       :     2.846449  s :     2.846449
      pz      :     1.056844  p :     3.149538
      px      :     1.030666
      py      :     1.062028
      dz2     :     0.014304  d :     0.071112
      dxz     :     0.004341
      dyz     :     0.021908
      dx2y2   :     0.010818
      dxy     :     0.019740
 29 H s       :     0.911710  s :     0.911710
      pz      :     0.029521  p :     0.067255
      px      :     0.013378
      py      :     0.024357
 30 H s       :     0.906429  s :     0.906429
      pz      :     0.029513  p :     0.056325
      px      :     0.009684
      py      :     0.017128
 31 H s       :     0.906914  s :     0.906914
      pz      :     0.012891  p :     0.063999
      px      :     0.030630
      py      :     0.020478
 32 H s       :     0.899571  s :     0.899571
      pz      :     0.012162  p :     0.070763
      px      :     0.017399
      py      :     0.041202
 33 H s       :     0.904238  s :     0.904238
      pz      :     0.018536  p :     0.082238
      px      :     0.020237
      py      :     0.043465


                      *****************************
                      * MAYER POPULATION ANALYSIS *
                      *****************************

  NA   - Mulliken gross atomic population
  ZA   - Total nuclear charge
  QA   - Mulliken gross atomic charge
  VA   - Mayer's total valence
  BVA  - Mayer's bonded valence
  FA   - Mayer's free valence

  ATOM       NA         ZA         QA         VA         BVA        FA
  0 S     15.8754    16.0000     0.1246     2.4880     2.4880    -0.0000
  1 C      6.1609     6.0000    -0.1609     3.8356     3.8356    -0.0000
  2 C      6.0275     6.0000    -0.0275     4.0126     4.0126    -0.0000
  3 C      6.0221     6.0000    -0.0221     3.9338     3.9338     0.0000
  4 C      6.1198     6.0000    -0.1198     3.8493     3.8493     0.0000
  5 H      0.9808     1.0000     0.0192     1.0044     1.0044     0.0000
  6 C      5.9368     6.0000     0.0632     3.9081     3.9081    -0.0000
  7 H      0.9668     1.0000     0.0332     0.9846     0.9846    -0.0000
  8 H      0.9726     1.0000     0.0274     0.9871     0.9871    -0.0000
  9 C      6.1324     6.0000    -0.1324     4.0971     4.0971     0.0000
 10 H      0.9811     1.0000     0.0189     0.9767     0.9767    -0.0000
 11 H      0.9647     1.0000     0.0353     0.9795     0.9795     0.0000
 12 C      6.0083     6.0000    -0.0083     3.9843     3.9843     0.0000
 13 H      0.9594     1.0000     0.0406     0.9862     0.9862    -0.0000
 14 H      0.9876     1.0000     0.0124     1.0004     1.0004     0.0000
 15 H      0.9511     1.0000     0.0489     0.9854     0.9854    -0.0000
 16 S     15.9093    16.0000     0.0907     2.4681     2.4681    -0.0000
 17 C      6.0695     6.0000    -0.0695     3.8596     3.8596    -0.0000
 18 C      6.0438     6.0000    -0.0438     3.9297     3.9297     0.0000
 19 C      6.0812     6.0000    -0.0812     4.0196     4.0196     0.0000
 20 C      6.1472     6.0000    -0.1472     3.9588     3.9588     0.0000
 21 H      0.9661     1.0000     0.0339     0.9952     0.9952    -0.0000
 22 C      5.9426     6.0000     0.0574     3.9675     3.9675    -0.0000
 23 H      0.9545     1.0000     0.0455     0.9828     0.9828    -0.0000
 24 H      0.9491     1.0000     0.0509     0.9916     0.9916    -0.0000
 25 C      6.0632     6.0000    -0.0632     4.0919     4.0919    -0.0000
 26 H      0.9895     1.0000     0.0105     0.9775     0.9775    -0.0000
 27 H      0.9825     1.0000     0.0175     0.9791     0.9791     0.0000
 28 C      6.0646     6.0000    -0.0646     4.0042     4.0042     0.0000
 29 H      0.9692     1.0000     0.0308     0.9870     0.9870     0.0000
 30 H      0.9528     1.0000     0.0472     0.9870     0.9870     0.0000
 31 H      0.9635     1.0000     0.0365     0.9847     0.9847     0.0000
 32 H      0.9405     1.0000     0.0595     1.0003     1.0003    -0.0000
 33 H      0.9635     1.0000     0.0365     0.9984     0.9984    -0.0000

  Mayer bond orders larger than 0.100000
B(  0-S ,  1-C ) :   1.1463 B(  0-S ,  4-C ) :   1.1383 B(  1-C ,  2-C ) :   1.6074 
B(  1-C , 32-H ) :   0.9553 B(  2-C ,  3-C ) :   1.2513 B(  2-C ,  6-C ) :   1.0203 
B(  3-C ,  4-C ) :   1.5408 B(  3-C ,  5-H ) :   0.9946 B(  4-C , 20-C ) :   1.0520 
B(  6-C ,  7-H ) :   0.9259 B(  6-C ,  8-H ) :   0.9437 B(  6-C ,  9-C ) :   1.0604 
B(  9-C , 10-H ) :   0.9517 B(  9-C , 11-H ) :   0.9550 B(  9-C , 12-C ) :   1.0842 
B( 12-C , 13-H ) :   0.9727 B( 12-C , 14-H ) :   0.9677 B( 12-C , 15-H ) :   0.9733 
B( 16-S , 17-C ) :   1.1590 B( 16-S , 20-C ) :   1.1160 B( 17-C , 18-C ) :   1.6186 
B( 17-C , 33-H ) :   0.9718 B( 18-C , 19-C ) :   1.2003 B( 18-C , 21-H ) :   0.9867 
B( 19-C , 20-C ) :   1.6403 B( 19-C , 22-C ) :   1.0202 B( 22-C , 23-H ) :   0.9223 
B( 22-C , 24-H ) :   0.9469 B( 22-C , 25-C ) :   1.0771 B( 25-C , 26-H ) :   0.9545 
B( 25-C , 27-H ) :   0.9448 B( 25-C , 28-C ) :   1.0807 B( 28-C , 29-H ) :   0.9769 
B( 28-C , 30-H ) :   0.9734 B( 28-C , 31-H ) :   0.9725 

-------
TIMINGS
-------

Total SCF time: 0 days 0 hours 0 min 18 sec 

Total time                  ....      18.049 sec
Sum of individual times     ....      17.215 sec  ( 95.4%)

Fock matrix formation       ....      15.590 sec  ( 86.4%)
  XC integration            ....       1.393 sec  (  8.9% of F)
    Basis function eval.    ....       0.128 sec  (  9.2% of XC)
    Density eval.           ....       0.096 sec  (  6.9% of XC)
    XC-Functional eval.     ....       0.112 sec  (  8.0% of XC)
    XC-Potential eval.      ....       0.112 sec  (  8.0% of XC)
Diagonalization             ....       0.135 sec  (  0.7%)
Density matrix formation    ....       0.022 sec  (  0.1%)
Population analysis         ....       0.054 sec  (  0.3%)
Initial guess               ....       0.167 sec  (  0.9%)
Orbital Transformation      ....       0.000 sec  (  0.0%)
Orbital Orthonormalization  ....       0.000 sec  (  0.0%)
DIIS solution               ....       0.160 sec  (  0.9%)
SOSCF solution              ....       0.106 sec  (  0.6%)
Grid generation             ....       0.982 sec  (  5.4%)


-------------------------------------------------------------------------------
                          DFT DISPERSION CORRECTION                            
                                                                               
                              DFTD3 V3.1  Rev 1                                
                              USING zero damping                               
-------------------------------------------------------------------------------
The omegaB97X-D3 functional is recognized. Fit by Chai et al.
Active option DFTDOPT                   ...         3   

molecular C6(AA) [au] = 14202.627114 


            DFT-D V3
 parameters
 s6 scaling factor         :     1.0000 
 rs6 scaling factor        :     1.2810 
 s8 scaling factor         :     1.0000 
 rs8 scaling factor        :     1.0940 
 Damping factor alpha6     :    14.0000 
 Damping factor alpha8     :    16.0000 
 ad hoc parameters k1-k3   :    16.0000     1.3333    -4.0000 

 Edisp/kcal,au: -8.484286037044  -0.013520568984 
 E6   /kcal   :  -3.679897792 
 E8   /kcal   :  -4.804388245 
 % E8         :  56.626900883 

-------------------------   ----------------
Dispersion correction           -0.013520569
-------------------------   ----------------


-------------------------   --------------------
FINAL SINGLE POINT ENERGY     -1339.876864428702
-------------------------   --------------------


                            ***************************************
                            *     ORCA property calculations      *
                            ***************************************

                                    ---------------------
                                    Active property flags
                                    ---------------------
   (+) Dipole Moment


------------------------------------------------------------------------------
                       ORCA ELECTRIC PROPERTIES CALCULATION
------------------------------------------------------------------------------

Dipole Moment Calculation                       ... on
Quadrupole Moment Calculation                   ... off
Polarizability Calculation                      ... off
GBWName                                         ... config_4556.gbw
Electron density file                           ... config_4556.scfp
The origin for moment calculation is the CENTER OF MASS  = (-195.511200, 85.551543 -181.152404)

-------------
DIPOLE MOMENT
-------------
                                X             Y             Z
Electronic contribution:    -16.91599      12.51084      -7.54679
Nuclear contribution   :     17.32356     -12.62194       7.73189
                        -----------------------------------------
Total Dipole Moment    :      0.40757      -0.11110       0.18510
                        -----------------------------------------
Magnitude (a.u.)       :      0.46122
Magnitude (Debye)      :      1.17232



--------------------
Rotational spectrum 
--------------------
 
Rotational constants in cm-1:     0.019360     0.007536     0.006235 
Rotational constants in MHz :   580.397019   225.924157   186.916259 

 Dipole components along the rotational axes: 
x,y,z [a.u.] :     0.099451     0.328127    -0.308483 
x,y,z [Debye]:     0.252783     0.834034    -0.784103 

 

Timings for individual modules:

Sum of individual times         ...       19.228 sec (=   0.320 min)
GTO integral calculation        ...        0.789 sec (=   0.013 min)   4.1 %
SCF iterations                  ...       18.439 sec (=   0.307 min)  95.9 %
                             ****ORCA TERMINATED NORMALLY****
TOTAL RUN TIME: 0 days 0 hours 0 minutes 19 seconds 919 msec
