
                                 *****************
                                 * O   R   C   A *
                                 *****************

           --- An Ab Initio, DFT and Semiempirical electronic structure package ---

                  #######################################################
                  #                        -***-                        #
                  #          Department of theory and spectroscopy      #
                  #               Directorship: Frank Neese             #
                  #        Max Planck Institute fuer Kohlenforschung    #
                  #                Kaiser Wilhelm Platz 1               #
                  #                 D-45470 Muelheim/Ruhr               #
                  #                      Germany                        #
                  #                                                     #
                  #                  All rights reserved                #
                  #                        -***-                        #
                  #######################################################


                         Program Version 4.2.1 -  RELEASE  -


 With contributions from (in alphabetic order):
   Daniel Aravena         : Magnetic Suceptibility
   Michael Atanasov       : Ab Initio Ligand Field Theory (pilot matlab implementation)
   Alexander A. Auer      : GIAO ZORA, VPT2
   Ute Becker             : Parallelization
   Giovanni Bistoni       : ED, misc. LED, open-shell LED, HFLD
   Martin Brehm           : Molecular dynamics
   Dmytro Bykov           : SCF Hessian
   Vijay G. Chilkuri      : MRCI spin determinant printing, contributions to CSF-ICE
   Dipayan Datta          : RHF DLPNO-CCSD density
   Achintya Kumar Dutta   : EOM-CC, STEOM-CC
   Dmitry Ganyushin       : Spin-Orbit,Spin-Spin,Magnetic field MRCI
   Miquel Garcia          : C-PCM Hessian, Gaussian charge scheme
   Yang Guo               : DLPNO-NEVPT2, CIM, IAO-localization
   Andreas Hansen         : Spin unrestricted coupled pair/coupled cluster methods
   Benjamin Helmich-Paris : CASSCF linear response (MC-RPA)
   Lee Huntington         : MR-EOM, pCC
   Robert Izsak           : Overlap fitted RIJCOSX, COSX-SCS-MP3, EOM
   Christian Kollmar      : KDIIS, OOCD, Brueckner-CCSD(T), CCSD density
   Simone Kossmann        : Meta GGA functionals, TD-DFT gradient, OOMP2, MP2 Hessian
   Martin Krupicka        : AUTO-CI
   Lucas Lang             : DCDCAS
   Dagmar Lenk            : GEPOL surface, SMD
   Dimitrios Liakos       : Extrapolation schemes; Compound Job, initial MDCI parallelization
   Dimitrios Manganas     : Further ROCIS development; embedding schemes
   Dimitrios Pantazis     : SARC Basis sets
   Taras Petrenko         : DFT Hessian,TD-DFT gradient, ASA, ECA, R-Raman, ABS, FL, XAS/XES, NRVS
   Peter Pinski           : DLPNO-MP2, DLPNO-MP2 Gradient
   Christoph Reimann      : Effective Core Potentials
   Marius Retegan         : Local ZFS, SOC
   Christoph Riplinger    : Optimizer, TS searches, QM/MM, DLPNO-CCSD(T), (RO)-DLPNO pert. Triples
   Tobias Risthaus        : Range-separated hybrids, TD-DFT gradient, RPA, STAB
   Michael Roemelt        : Original ROCIS implementation
   Masaaki Saitow         : Open-shell DLPNO-CCSD energy and density
   Barbara Sandhoefer     : DKH picture change effects
   Avijit Sen             : IP-ROCIS
   Kantharuban Sivalingam : CASSCF convergence, NEVPT2, FIC-MRCI
   Bernardo de Souza      : ESD, SOC TD-DFT
   Georgi Stoychev        : AutoAux, RI-MP2 NMR
   Willem Van den Heuvel  : Paramagnetic NMR
   Boris Wezisla          : Elementary symmetry handling
   Frank Wennmohs         : Technical directorship


 We gratefully acknowledge several colleagues who have allowed us to
 interface, adapt or use parts of their codes:
   Stefan Grimme, W. Hujo, H. Kruse,             : VdW corrections, initial TS optimization,
                  C. Bannwarth                     DFT functionals, gCP, sTDA/sTD-DF
   Ed Valeev, F. Pavosevic, A. Kumar             : LibInt (2-el integral package), F12 methods
   Garnet Chan, S. Sharma, J. Yang, R. Olivares  : DMRG
   Ulf Ekstrom                                   : XCFun DFT Library
   Mihaly Kallay                                 : mrcc  (arbitrary order and MRCC methods)
   Andreas Klamt, Michael Diedenhofen            : otool_cosmo (COSMO solvation model)
   Jiri Pittner, Ondrej Demel                    : Mk-CCSD
   Frank Weinhold                                : gennbo (NPA and NBO analysis)
   Christopher J. Cramer and Donald G. Truhlar   : smd solvation model
   Lars Goerigk                                  : TD-DFT with DH, B97 family of functionals
   V. Asgeirsson, H. Jonsson                     : NEB implementation
   FAccTs GmbH                                   : IRC, NEB, NEB-TS, Multilevel, MM, QM/MM, CI optimization
   S Lehtola, MJT Oliveira, MAL Marques          : LibXC Library


 Your calculation uses the libint2 library for the computation of 2-el integrals
 For citations please refer to: http://libint.valeyev.net

 Your ORCA version has been built with support for libXC version: 4.2.3
 For citations please refer to: https://tddft.org/programs/libxc/

 This ORCA versions uses:
   CBLAS   interface :  Fast vector & matrix operations
   LAPACKE interface :  Fast linear algebra routines
   SCALAPACK package :  Parallel linear algebra routines


Your calculation utilizes the atom-pairwise dispersion correction
with the zero-damping scheme (D30)
Cite in your paper:
S.Grimme, J.Antony, S.Ehrlich and H.Krieg, J.Chem.Phys., 132, (2010), 154104 
   

XCFun DFT library Copyright 2009-2010 Ulf Ekstrom and contributors.
See http://admol.org/xcfun for more information. This is free soft-
ware; see the source code for copying conditions. There is ABSOLUTELY
NO WARRANTY; not even for MERCHANTABILITY or FITNESS FOR A PARTICULAR
PURPOSE. For details see the documentation. Scientific users of this 
library should cite U. Ekstrom, L. Visscher, R. Bast, A. J. Thorvald-
sen and K. Ruud; J.Chem.Theor.Comp. 2010, DOI: 10.1021/ct100117s
XCFun Version 0.99 
----- Orbital basis set information -----
Your calculation utilizes the basis: def2-SVP
   F. Weigend and R. Ahlrichs, Phys. Chem. Chem. Phys. 7, 3297 (2005).

================================================================================
                                        WARNINGS
                       Please study these warnings very carefully!
================================================================================


INFO   : the flag for use of LIBINT has been found!

================================================================================
                                       INPUT FILE
================================================================================
NAME = config_8338.inp
|  1> ! wB97X-D3 SP def2-SVP
|  2> %pal
|  3> nprocs 24
|  4> end
|  5> 
|  6> * xyz 0 1
|  7> S 	 -53.812 	 -48.5409 	 -78.9175 	 
|  8> C 	 -54.3126 	 -46.8317 	 -79.077 	 
|  9> C 	 -54.333 	 -46.4467 	 -80.4062 	 
| 10> C 	 -53.7373 	 -47.4741 	 -81.2587 	 
| 11> C 	 -53.5156 	 -48.6814 	 -80.6428 	 
| 12> H 	 -53.5429 	 -47.3911 	 -82.318 	 
| 13> C 	 -54.6927 	 -45.082 	 -81.0172 	 
| 14> H 	 -54.1678 	 -45.0825 	 -81.97 	 
| 15> H 	 -54.2307 	 -44.3363 	 -80.3136 	 
| 16> C 	 -56.1613 	 -44.814 	 -81.1831 	 
| 17> H 	 -56.6476 	 -44.9722 	 -80.1617 	 
| 18> H 	 -56.2683 	 -43.8006 	 -81.4428 	 
| 19> C 	 -56.9756 	 -45.729 	 -82.1466 	 
| 20> H 	 -57.8985 	 -45.3025 	 -82.4156 	 
| 21> H 	 -56.4869 	 -46.0481 	 -83.0764 	 
| 22> H 	 -57.2104 	 -46.7164 	 -81.7563 	 
| 23> S 	 -54.2229 	 -51.2165 	 -80.9332 	 
| 24> C 	 -53.1345 	 -52.338 	 -81.7983 	 
| 25> C 	 -52.0551 	 -51.6956 	 -82.3499 	 
| 26> C 	 -52.0206 	 -50.3026 	 -82.0473 	 
| 27> C 	 -53.1585 	 -49.9404 	 -81.2789 	 
| 28> H 	 -51.3281 	 -52.2212 	 -83.0138 	 
| 29> C 	 -50.8818 	 -49.3935 	 -82.5012 	 
| 30> H 	 -49.9348 	 -49.9813 	 -82.4373 	 
| 31> H 	 -50.79 	 -48.4652 	 -81.9259 	 
| 32> C 	 -50.9328 	 -49.0705 	 -83.9607 	 
| 33> H 	 -50.3841 	 -48.2307 	 -84.284 	 
| 34> H 	 -51.9138 	 -48.7493 	 -84.2683 	 
| 35> C 	 -50.5606 	 -50.2462 	 -84.9056 	 
| 36> H 	 -49.5361 	 -50.5844 	 -84.8951 	 
| 37> H 	 -50.8224 	 -49.7787 	 -85.9032 	 
| 38> H 	 -51.2255 	 -51.1269 	 -84.895 	 
| 39> H 	 -54.7393 	 -46.3046 	 -78.2202 	 
| 40> H 	 -53.4132 	 -53.3104 	 -82.1888 	 
| 41> *
| 42> 
| 43>                          ****END OF INPUT****
================================================================================

                       ****************************
                       * Single Point Calculation *
                       ****************************

---------------------------------
CARTESIAN COORDINATES (ANGSTROEM)
---------------------------------
  S    -53.812000  -48.540900  -78.917500
  C    -54.312600  -46.831700  -79.077000
  C    -54.333000  -46.446700  -80.406200
  C    -53.737300  -47.474100  -81.258700
  C    -53.515600  -48.681400  -80.642800
  H    -53.542900  -47.391100  -82.318000
  C    -54.692700  -45.082000  -81.017200
  H    -54.167800  -45.082500  -81.970000
  H    -54.230700  -44.336300  -80.313600
  C    -56.161300  -44.814000  -81.183100
  H    -56.647600  -44.972200  -80.161700
  H    -56.268300  -43.800600  -81.442800
  C    -56.975600  -45.729000  -82.146600
  H    -57.898500  -45.302500  -82.415600
  H    -56.486900  -46.048100  -83.076400
  H    -57.210400  -46.716400  -81.756300
  S    -54.222900  -51.216500  -80.933200
  C    -53.134500  -52.338000  -81.798300
  C    -52.055100  -51.695600  -82.349900
  C    -52.020600  -50.302600  -82.047300
  C    -53.158500  -49.940400  -81.278900
  H    -51.328100  -52.221200  -83.013800
  C    -50.881800  -49.393500  -82.501200
  H    -49.934800  -49.981300  -82.437300
  H    -50.790000  -48.465200  -81.925900
  C    -50.932800  -49.070500  -83.960700
  H    -50.384100  -48.230700  -84.284000
  H    -51.913800  -48.749300  -84.268300
  C    -50.560600  -50.246200  -84.905600
  H    -49.536100  -50.584400  -84.895100
  H    -50.822400  -49.778700  -85.903200
  H    -51.225500  -51.126900  -84.895000
  H    -54.739300  -46.304600  -78.220200
  H    -53.413200  -53.310400  -82.188800

----------------------------
CARTESIAN COORDINATES (A.U.)
----------------------------
  NO LB      ZA    FRAG     MASS         X           Y           Z
   0 S    16.0000    0    32.060  -101.689943  -91.729007  -149.132462
   1 C     6.0000    0    12.011  -102.635940  -88.499087  -149.433873
   2 C     6.0000    0    12.011  -102.674490  -87.771543  -151.945697
   3 C     6.0000    0    12.011  -101.548780  -89.713047  -153.556689
   4 C     6.0000    0    12.011  -101.129828  -91.994514  -152.392807
   5 H     1.0000    0     1.008  -101.181417  -89.556200  -155.558476
   6 C     6.0000    0    12.011  -103.354225  -85.192634  -153.100320
   7 H     1.0000    0     1.008  -102.362307  -85.193578  -154.900851
   8 H     1.0000    0     1.008  -102.481171  -83.783465  -151.770709
   9 C     6.0000    0    12.011  -106.129476  -84.686187  -153.413826
  10 H     1.0000    0     1.008  -107.048450  -84.985142  -151.483659
  11 H     1.0000    0     1.008  -106.331677  -82.771139  -153.904588
  12 C     6.0000    0    12.011  -107.668280  -86.415286  -155.234577
  13 H     1.0000    0     1.008  -109.412309  -85.609318  -155.742913
  14 H     1.0000    0     1.008  -106.744771  -87.018298  -156.991644
  15 H     1.0000    0     1.008  -108.111988  -88.281202  -154.497017
  16 S    16.0000    0    32.060  -102.466431  -96.785159  -152.941583
  17 C     6.0000    0    12.011  -100.409653  -98.904486  -154.576385
  18 C     6.0000    0    12.011  -98.369883  -97.690526  -155.618758
  19 C     6.0000    0    12.011  -98.304687  -95.058138  -155.046927
  20 C     6.0000    0    12.011  -100.455007  -94.373679  -153.594861
  21 H     1.0000    0     1.008  -96.996052  -98.683766  -156.873347
  22 C     6.0000    0    12.011  -96.152667  -93.340188  -155.904674
  23 H     1.0000    0     1.008  -94.363097  -94.450969  -155.783920
  24 H     1.0000    0     1.008  -95.979190  -91.585955  -154.817514
  25 C     6.0000    0    12.011  -96.249043  -92.729806  -158.662729
  26 H     1.0000    0     1.008  -95.212151  -91.142814  -159.273677
  27 H     1.0000    0     1.008  -98.102865  -92.122826  -159.244009
  28 C     6.0000    0    12.011  -95.545687  -94.951557  -160.448331
  29 H     1.0000    0     1.008  -93.609663  -95.590663  -160.428489
  30 H     1.0000    0     1.008  -96.040417  -94.068110  -162.333522
  31 H     1.0000    0     1.008  -96.802166  -96.615839  -160.428300
  32 H     1.0000    0     1.008  -103.442286  -87.503013  -147.814756
  33 H     1.0000    0     1.008  -100.936320  -100.742056  -155.314323

--------------------------------
INTERNAL COORDINATES (ANGSTROEM)
--------------------------------
 S      0   0   0     0.000000000000     0.00000000     0.00000000
 C      1   0   0     1.788128980247     0.00000000     0.00000000
 C      2   1   0     1.383984754251   110.83623956     0.00000000
 C      3   2   1     1.461904750659   111.01129575   350.85047011
 C      4   3   2     1.373337900882   114.96555148    11.60598536
 H      4   3   2     1.080183711227   126.24239086   186.12975507
 C      3   2   1     1.537891797234   129.18838238   180.25084938
 H      7   3   2     1.087818045447   103.57504536   155.51373679
 H      7   3   2     1.124528990289   104.10912201    39.91622697
 C      7   3   2     1.502042865567   115.52440949   278.39775631
 H     10   7   3     1.142266558208   107.02446110    54.19965405
 H     10   7   3     1.051604797441   107.37963033   170.08794236
 C     10   7   3     1.558410003818   118.32114659   296.75329976
 H     13  10   7     1.051668987847   112.24517794   197.03635585
 H     13  10   7     1.097807150642   117.49680312   321.67633211
 H     13  10   7     1.087393162568   115.09120345    76.08511180
 S      5   4   3     2.647893022764   138.53375372   121.27818075
 C     17   5   4     1.786274004737   119.43625677    96.45497680
 C     18  17   5     1.371876335535   112.34249564   354.07071834
 C     19  18  17     1.425905329957   113.02715981     2.96659874
 C     20  19  18     1.420015425973   110.15907435   358.03251501
 H     19  18  17     1.116041025232   122.08573385   186.39900128
 C     20  19  18     1.526221956335   122.46933652   177.28665176
 H     23  20  19     1.116423329208   107.59503974   323.20119249
 H     23  20  19     1.095964515849   114.26230030   200.53297464
 C     23  20  19     1.495683873685   113.16609907    74.43505960
 H     26  23  20     1.053972779535   116.97768282   161.24642202
 H     26  23  20     1.077101759352   111.97039733    48.56708888
 C     26  23  20     1.553589179931   114.95428471   287.96554777
 H     29  26  23     1.078929905045   117.30863465   292.10310183
 H     29  26  23     1.132387411622    99.67135819   172.35753030
 H     29  26  23     1.103556459815   116.98472244    64.12358866
 H      2   1   3     1.092709265999   120.03092545   167.89261495
 H     18  17   5     1.084308858213   125.51029653   196.05197070

---------------------------
INTERNAL COORDINATES (A.U.)
---------------------------
 S      0   0   0     0.000000000000     0.00000000     0.00000000
 C      1   0   0     3.379074064795     0.00000000     0.00000000
 C      2   1   0     2.615352159057   110.83623956     0.00000000
 C      3   2   1     2.762599612624   111.01129575   350.85047011
 C      4   3   2     2.595232522002   114.96555148    11.60598536
 H      4   3   2     2.041251388542   126.24239086   186.12975507
 C      3   2   1     2.906194320376   129.18838238   180.25084938
 H      7   3   2     2.055678189432   103.57504536   155.51373679
 H      7   3   2     2.125051821301   104.10912201    39.91622697
 C      7   3   2     2.838449657331   115.52440949   278.39775631
 H     10   7   3     2.158570966950   107.02446110    54.19965405
 H     10   7   3     1.987245068280   107.37963033   170.08794236
 C     10   7   3     2.944968111579   118.32114659   296.75329976
 H     13  10   7     1.987366370570   112.24517794   197.03635585
 H     13  10   7     2.074554862573   117.49680312   321.67633211
 H     13  10   7     2.054875277152   115.09120345    76.08511180
 S      5   4   3     5.003792644944   138.53375372   121.27818075
 C     17   5   4     3.375568669096   119.43625677    96.45497680
 C     18  17   5     2.592470563768   112.34249564   354.07071834
 C     19  18  17     2.694570566517   113.02715981     2.96659874
 C     20  19  18     2.683440261032   110.15907435   358.03251501
 H     19  18  17     2.109011891908   122.08573385   186.39900128
 C     20  19  18     2.884141517051   122.46933652   177.28665176
 H     23  20  19     2.109734341724   107.59503974   323.20119249
 H     23  20  19     2.071072787450   114.26230030   200.53297464
 C     23  20  19     2.826432904186   113.16609907    74.43505960
 H     26  23  20     1.991719905928   116.97768282   161.24642202
 H     26  23  20     2.035427343541   111.97039733    48.56708888
 C     26  23  20     2.935858074694   114.95428471   287.96554777
 H     29  26  23     2.038882038232   117.30863465   292.10310183
 H     29  26  23     2.139902085466    99.67135819   172.35753030
 H     29  26  23     2.085419482371   116.98472244    64.12358866
 H      2   1   3     2.064921256736   120.03092545   167.89261495
 H     18  17   5     2.049046786608   125.51029653   196.05197070

---------------------
BASIS SET INFORMATION
---------------------
There are 3 groups of distinct atoms

 Group   1 Type S   : 10s7p1d contracted to 4s3p1d pattern {5311/511/1}
 Group   2 Type C   : 7s4p1d contracted to 3s2p1d pattern {511/31/1}
 Group   3 Type H   : 4s1p contracted to 2s1p pattern {31/1}

Atom   0S    basis set group =>   1
Atom   1C    basis set group =>   2
Atom   2C    basis set group =>   2
Atom   3C    basis set group =>   2
Atom   4C    basis set group =>   2
Atom   5H    basis set group =>   3
Atom   6C    basis set group =>   2
Atom   7H    basis set group =>   3
Atom   8H    basis set group =>   3
Atom   9C    basis set group =>   2
Atom  10H    basis set group =>   3
Atom  11H    basis set group =>   3
Atom  12C    basis set group =>   2
Atom  13H    basis set group =>   3
Atom  14H    basis set group =>   3
Atom  15H    basis set group =>   3
Atom  16S    basis set group =>   1
Atom  17C    basis set group =>   2
Atom  18C    basis set group =>   2
Atom  19C    basis set group =>   2
Atom  20C    basis set group =>   2
Atom  21H    basis set group =>   3
Atom  22C    basis set group =>   2
Atom  23H    basis set group =>   3
Atom  24H    basis set group =>   3
Atom  25C    basis set group =>   2
Atom  26H    basis set group =>   3
Atom  27H    basis set group =>   3
Atom  28C    basis set group =>   2
Atom  29H    basis set group =>   3
Atom  30H    basis set group =>   3
Atom  31H    basis set group =>   3
Atom  32H    basis set group =>   3
Atom  33H    basis set group =>   3


           ************************************************************
           *        Program running with 24 parallel MPI-processes    *
           *              working on a common directory               *
           ************************************************************
------------------------------------------------------------------------------
                           ORCA GTO INTEGRAL CALCULATION
------------------------------------------------------------------------------

                         BASIS SET STATISTICS AND STARTUP INFO

 # of primitive gaussian shells          ...  294
 # of primitive gaussian functions       ...  534
 # of contracted shells                  ...  154
 # of contracted basis functions         ...  322
 Highest angular momentum                ...    2
 Maximum contraction depth               ...    5
 Integral package used                   ... LIBINT
 Integral threshhold            Thresh   ...  1.000e-10
 Primitive cut-off              TCut     ...  1.000e-11


------------------------------ INTEGRAL EVALUATION ----------------------------


 * One electron integrals 
 Pre-screening matrix                    ... done
 Shell pair data                         ... done (   0.003 sec)



           ************************************************************
           *        Program running with 24 parallel MPI-processes    *
           *              working on a common directory               *
           ************************************************************
-------------------------------------------------------------------------------
                                 ORCA SCF
-------------------------------------------------------------------------------

------------
SCF SETTINGS
------------
Hamiltonian:
 Density Functional     Method          .... DFT(GTOs)
 Exchange Functional    Exchange        .... WB97X-D3
 Correlation Functional Correlation     .... WB97X-D3
 Gradients option       PostSCFGGA      .... off
 Hybrid DFT is turned on
   Fraction HF Exchange ScalHFX         ....  0.195728
   Scaling of DF-GGA-X  ScalDFX         ....  0.000000
   Scaling of DF-GGA-C  ScalDFC         ....  1.000000
   Scaling of DF-LDA-C  ScalLDAC        ....  1.000000
   Perturbative correction              ....  0.000000
   Density functional embedding theory  .... OFF
 Long-range corrected/Screened/Range-Separated Hybrid DFT is turned on
   Amount of maximum screened exact exchange              ....  0.804272
   Range separation parameter mu (erf(mu*r12)/r12)        ....  0.250000


General Settings:
 Integral files         IntName         .... config_8338
 Hartree-Fock type      HFTyp           .... RHF
 Total Charge           Charge          ....    0
 Multiplicity           Mult            ....    1
 Number of Electrons    NEL             ....  134
 Basis Dimension        Dim             ....  322
 Nuclear Repulsion      ENuc            ....   1285.2886693823 Eh

Convergence Acceleration:
 DIIS                   CNVDIIS         .... on
   Start iteration      DIISMaxIt       ....    12
   Startup error        DIISStart       ....  0.200000
   # of expansion vecs  DIISMaxEq       ....     5
   Bias factor          DIISBfac        ....   1.050
   Max. coefficient     DIISMaxC        ....  10.000
 Newton-Raphson         CNVNR           .... off
 SOSCF                  CNVSOSCF        .... on
   Start iteration      SOSCFMaxIt      ....   150
   Startup grad/error   SOSCFStart      ....  0.003300
 Level Shifting         CNVShift        .... on
   Level shift para.    LevelShift      ....    0.2500
   Turn off err/grad.   ShiftErr        ....    0.0010
 Zerner damping         CNVZerner       .... off
 Static damping         CNVDamp         .... on
   Fraction old density DampFac         ....    0.7000
   Max. Damping (<1)    DampMax         ....    0.9800
   Min. Damping (>=0)   DampMin         ....    0.0000
   Turn off err/grad.   DampErr         ....    0.1000
 Fernandez-Rico         CNVRico         .... off

SCF Procedure:
 Maximum # iterations   MaxIter         ....   125
 SCF integral mode      SCFMode         .... Direct
   Integral package                     .... LIBINT
 Reset frequency        DirectResetFreq ....    20
 Integral Threshold     Thresh          ....  1.000e-10 Eh
 Primitive CutOff       TCut            ....  1.000e-11 Eh

Convergence Tolerance:
 Convergence Check Mode ConvCheckMode   .... Total+1el-Energy
 Convergence forced     ConvForced      .... 0
 Energy Change          TolE            ....  1.000e-06 Eh
 1-El. energy change                    ....  1.000e-03 Eh
 Orbital Gradient       TolG            ....  5.000e-05
 Orbital Rotation angle TolX            ....  5.000e-05
 DIIS Error             TolErr          ....  1.000e-06


Diagonalization of the overlap matrix:
Smallest eigenvalue                        ... 7.038e-04
Time for diagonalization                   ...    0.015 sec
Threshold for overlap eigenvalues          ... 1.000e-08
Number of eigenvalues below threshold      ... 0
Time for construction of square roots      ...    0.025 sec
Total time needed                          ...    0.041 sec

-------------------
DFT GRID GENERATION
-------------------

General Integration Accuracy     IntAcc      ...  4.340
Radial Grid Type                 RadialGrid  ... Gauss-Chebyshev
Angular Grid (max. acc.)         AngularGrid ... Lebedev-110
Angular grid pruning method      GridPruning ... 3 (G Style)
Weight generation scheme         WeightScheme... Becke
Basis function cutoff            BFCut       ...    1.0000e-10
Integration weight cutoff        WCut        ...    1.0000e-14
Grids for H and He will be reduced by one unit

# of grid points (after initial pruning)     ...  41088 (   0.0 sec)
# of grid points (after weights+screening)   ...  36966 (   0.0 sec)
nearest neighbour list constructed           ...    0.0 sec
Grid point re-assignment to atoms done       ...    0.0 sec
Grid point division into batches done        ...    0.0 sec
Reduced shell lists constructed in    0.1 sec

Total number of grid points                  ...    36966
Total number of batches                      ...      595
Average number of points per batch           ...       62
Average number of grid points per atom       ...     1087
Average number of shells per batch           ...    67.46 (43.81%)
Average number of basis functions per batch  ...   133.15 (41.35%)
Average number of large shells per batch     ...    42.42 (62.88%)
Average number of large basis fcns per batch ...    87.88 (66.00%)
Maximum spatial batch extension              ...  19.37, 17.25, 16.34 au
Average spatial batch extension              ...   0.20,  0.17,  0.19 au

Time for grid setup =    0.150 sec

------------------------------
INITIAL GUESS: MODEL POTENTIAL
------------------------------
Loading Hartree-Fock densities                     ... done
Calculating cut-offs                               ... done
Setting up the integral package                    ... done
Initializing the effective Hamiltonian             ... done
Starting the Coulomb interaction                   ... done (   0.0 sec)
Reading the grid                                   ... done
Mapping shells                                     ... done
Starting the XC term evaluation                    ... done (   0.0 sec)
  promolecular density results
     # of electrons  =    133.978325276
     EX              =   -126.694572643
     EC              =     -4.616394312
     EX+EC           =   -131.310966955
Transforming the Hamiltonian                       ... done (   0.0 sec)
Diagonalizing the Hamiltonian                      ... done (   0.0 sec)
Back transforming the eigenvectors                 ... done (   0.0 sec)
Now organizing SCF variables                       ... done
                      ------------------
                      INITIAL GUESS DONE (   0.3 sec)
                      ------------------
--------------
SCF ITERATIONS
--------------
ITER       Energy         Delta-E        Max-DP      RMS-DP      [F,P]     Damp
               ***  Starting incremental Fock matrix formation  ***
  0  -1339.4218619354   0.000000000000 0.06525727  0.00155202  0.1541958 0.7000
  1  -1339.6084657488  -0.186603813384 0.04378496  0.00112986  0.0928675 0.7000
                               ***Turning on DIIS***
  2  -1339.6984987793  -0.090033030525 0.08700642  0.00213516  0.0478904 0.0000
  3  -1339.8345060743  -0.136007294987 0.04341816  0.00097264  0.0414157 0.0000
  4  -1339.8639301069  -0.029424032611 0.00745870  0.00019599  0.0071490 0.0000
                      *** Initiating the SOSCF procedure ***
                           *** Shutting down DIIS ***
                      *** Re-Reading the Fockian *** 
                      *** Removing any level shift *** 
ITER      Energy       Delta-E        Grad      Rot      Max-DP    RMS-DP
  5  -1339.86483121  -0.0009011068  0.001576  0.001576  0.003190  0.000100
               *** Restarting incremental Fock matrix formation ***
  6  -1339.86501911  -0.0001878930  0.001378  0.003824  0.002601  0.000065
  7  -1339.86508502  -0.0000659135  0.000753  0.004798  0.003507  0.000066
  8  -1339.86510309  -0.0000180675  0.000341  0.000737  0.000861  0.000021
  9  -1339.86510804  -0.0000049552  0.000153  0.000414  0.000330  0.000009
 10  -1339.86510853  -0.0000004916  0.000065  0.000233  0.000150  0.000004
                 **** Energy Check signals convergence ****
              ***Rediagonalizing the Fockian in SOSCF/NRSCF***

               *****************************************************
               *                     SUCCESS                       *
               *           SCF CONVERGED AFTER  11 CYCLES          *
               *****************************************************

Setting up the final grid:

General Integration Accuracy     IntAcc      ...  4.670
Radial Grid Type                 RadialGrid  ... Gauss-Chebyshev
Angular Grid (max. acc.)         AngularGrid ... Lebedev-302
Angular grid pruning method      GridPruning ... 3 (G Style)
Weight generation scheme         WeightScheme... Becke
Basis function cutoff            BFCut       ...    1.0000e-10
Integration weight cutoff        WCut        ...    1.0000e-14
Grids for H and He will be reduced by one unit

# of grid points (after initial pruning)     ... 161752 (   0.0 sec)
# of grid points (after weights+screening)   ... 142629 (   0.1 sec)
nearest neighbour list constructed           ...    0.0 sec
Grid point re-assignment to atoms done       ...    0.0 sec
Grid point division into batches done        ...    0.5 sec
Reduced shell lists constructed in    0.5 sec

Total number of grid points                  ...   142629
Total number of batches                      ...     2245
Average number of points per batch           ...       63
Average number of grid points per atom       ...     4195
Average number of shells per batch           ...    62.46 (40.56%)
Average number of basis functions per batch  ...   123.49 (38.35%)
Average number of large shells per batch     ...    38.56 (61.73%)
Average number of large basis fcns per batch ...    79.69 (64.53%)
Maximum spatial batch extension              ...  16.23, 12.12, 12.16 au
Average spatial batch extension              ...   0.12,  0.11,  0.12 au

Final grid set up in    0.8 sec
Final integration                            ... done (   0.2 sec)
Change in XC energy                          ...     0.006547809
Integrated number of electrons               ...   134.000018186
Previous integrated no of electrons          ...   133.990169498

----------------
TOTAL SCF ENERGY
----------------

Total Energy       :        -1339.85856099 Eh          -36459.40500 eV

Components:
Nuclear Repulsion  :         1285.28866938 Eh           34974.48276 eV
Electronic Energy  :        -2625.14723038 Eh          -71433.88777 eV
One Electron Energy:        -4387.23331713 Eh         -119382.68786 eV
Two Electron Energy:         1762.08608675 Eh           47948.80009 eV

Virial components:
Potential Energy   :        -2671.23460109 Eh          -72687.98888 eV
Kinetic Energy     :         1331.37604010 Eh           36228.58388 eV
Virial Ratio       :            2.00637124


DFT components:
N(Alpha)           :       67.000009092988 electrons
N(Beta)            :       67.000009092988 electrons
N(Total)           :      134.000018185975 electrons
E(XC)              :      -94.227377482925 Eh       
DFET-embed. en.    :        0.000000000000 Eh       

---------------
SCF CONVERGENCE
---------------

  Last Energy change         ...   -2.6792e-07  Tolerance :   1.0000e-06
  Last MAX-Density change    ...    3.2386e-05  Tolerance :   1.0000e-05
  Last RMS-Density change    ...    7.1613e-07  Tolerance :   1.0000e-06
  Last Orbital Gradient      ...    9.4824e-06  Tolerance :   5.0000e-05
  Last Orbital Rotation      ...    1.8775e-05  Tolerance :   5.0000e-05

             **** THE GBW FILE WAS UPDATED (config_8338.gbw) ****
             **** DENSITY FILE WAS UPDATED (config_8338.scfp) ****
             **** ENERGY FILE WAS UPDATED (config_8338.en.tmp) ****
             **** THE GBW FILE WAS UPDATED (config_8338.gbw) ****
             **** DENSITY FILE WAS UPDATED (config_8338.scfp) ****
----------------
ORBITAL ENERGIES
----------------

  NO   OCC          E(Eh)            E(eV) 
   0   2.0000     -88.969414     -2420.9808 
   1   2.0000     -88.963346     -2420.8157 
   2   2.0000     -10.327331      -281.0210 
   3   2.0000     -10.326686      -281.0034 
   4   2.0000     -10.318104      -280.7699 
   5   2.0000     -10.315720      -280.7050 
   6   2.0000     -10.306848      -280.4636 
   7   2.0000     -10.305809      -280.4353 
   8   2.0000     -10.297573      -280.2112 
   9   2.0000     -10.296494      -280.1818 
  10   2.0000     -10.292979      -280.0862 
  11   2.0000     -10.292907      -280.0843 
  12   2.0000     -10.290252      -280.0120 
  13   2.0000     -10.282834      -279.8101 
  14   2.0000     -10.281141      -279.7641 
  15   2.0000     -10.273560      -279.5578 
  16   2.0000      -8.084406      -219.9879 
  17   2.0000      -8.077595      -219.8025 
  18   2.0000      -6.042909      -164.4359 
  19   2.0000      -6.038834      -164.3250 
  20   2.0000      -6.036254      -164.2548 
  21   2.0000      -6.035175      -164.2255 
  22   2.0000      -6.032189      -164.1442 
  23   2.0000      -6.028198      -164.0356 
  24   2.0000      -1.006906       -27.3993 
  25   2.0000      -0.979155       -26.6442 
  26   2.0000      -0.915400       -24.9093 
  27   2.0000      -0.909867       -24.7587 
  28   2.0000      -0.869703       -23.6658 
  29   2.0000      -0.847024       -23.0487 
  30   2.0000      -0.840213       -22.8633 
  31   2.0000      -0.814070       -22.1520 
  32   2.0000      -0.786219       -21.3941 
  33   2.0000      -0.773855       -21.0577 
  34   2.0000      -0.707583       -19.2543 
  35   2.0000      -0.705221       -19.1900 
  36   2.0000      -0.690592       -18.7920 
  37   2.0000      -0.661597       -18.0030 
  38   2.0000      -0.639667       -17.4062 
  39   2.0000      -0.610167       -16.6035 
  40   2.0000      -0.594620       -16.1804 
  41   2.0000      -0.570222       -15.5165 
  42   2.0000      -0.553757       -15.0685 
  43   2.0000      -0.549469       -14.9518 
  44   2.0000      -0.545174       -14.8349 
  45   2.0000      -0.537638       -14.6299 
  46   2.0000      -0.515362       -14.0237 
  47   2.0000      -0.510839       -13.9006 
  48   2.0000      -0.500685       -13.6243 
  49   2.0000      -0.495404       -13.4806 
  50   2.0000      -0.487013       -13.2523 
  51   2.0000      -0.480448       -13.0736 
  52   2.0000      -0.474348       -12.9077 
  53   2.0000      -0.467548       -12.7226 
  54   2.0000      -0.458291       -12.4707 
  55   2.0000      -0.447391       -12.1741 
  56   2.0000      -0.443586       -12.0706 
  57   2.0000      -0.435606       -11.8534 
  58   2.0000      -0.431847       -11.7512 
  59   2.0000      -0.422739       -11.5033 
  60   2.0000      -0.420913       -11.4536 
  61   2.0000      -0.415483       -11.3059 
  62   2.0000      -0.410163       -11.1611 
  63   2.0000      -0.348093        -9.4721 
  64   2.0000      -0.332535        -9.0487 
  65   2.0000      -0.327175        -8.9029 
  66   2.0000      -0.292668        -7.9639 
  67   0.0000       0.033257         0.9050 
  68   0.0000       0.063861         1.7378 
  69   0.0000       0.109704         2.9852 
  70   0.0000       0.115395         3.1401 
  71   0.0000       0.124787         3.3956 
  72   0.0000       0.139371         3.7925 
  73   0.0000       0.148532         4.0418 
  74   0.0000       0.154385         4.2010 
  75   0.0000       0.155818         4.2400 
  76   0.0000       0.170584         4.6418 
  77   0.0000       0.183448         4.9919 
  78   0.0000       0.190419         5.1816 
  79   0.0000       0.194451         5.2913 
  80   0.0000       0.197612         5.3773 
  81   0.0000       0.207772         5.6538 
  82   0.0000       0.211277         5.7491 
  83   0.0000       0.217039         5.9059 
  84   0.0000       0.219389         5.9699 
  85   0.0000       0.221777         6.0349 
  86   0.0000       0.231067         6.2876 
  87   0.0000       0.235112         6.3977 
  88   0.0000       0.242551         6.6001 
  89   0.0000       0.254225         6.9178 
  90   0.0000       0.257093         6.9959 
  91   0.0000       0.262364         7.1393 
  92   0.0000       0.279816         7.6142 
  93   0.0000       0.286793         7.8040 
  94   0.0000       0.302016         8.2183 
  95   0.0000       0.314919         8.5694 
  96   0.0000       0.327971         8.9246 
  97   0.0000       0.351778         9.5724 
  98   0.0000       0.357346         9.7239 
  99   0.0000       0.363320         9.8864 
 100   0.0000       0.386095        10.5062 
 101   0.0000       0.398250        10.8369 
 102   0.0000       0.410041        11.1578 
 103   0.0000       0.418920        11.3994 
 104   0.0000       0.435697        11.8559 
 105   0.0000       0.450149        12.2492 
 106   0.0000       0.464963        12.6523 
 107   0.0000       0.472702        12.8629 
 108   0.0000       0.483642        13.1606 
 109   0.0000       0.492679        13.4065 
 110   0.0000       0.501248        13.6397 
 111   0.0000       0.508058        13.8250 
 112   0.0000       0.518229        14.1017 
 113   0.0000       0.525885        14.3101 
 114   0.0000       0.533058        14.5052 
 115   0.0000       0.535605        14.5746 
 116   0.0000       0.547135        14.8883 
 117   0.0000       0.555862        15.1258 
 118   0.0000       0.565060        15.3761 
 119   0.0000       0.569162        15.4877 
 120   0.0000       0.576042        15.6749 
 121   0.0000       0.595283        16.1985 
 122   0.0000       0.605065        16.4647 
 123   0.0000       0.609671        16.5900 
 124   0.0000       0.619350        16.8534 
 125   0.0000       0.623217        16.9586 
 126   0.0000       0.627579        17.0773 
 127   0.0000       0.646089        17.5810 
 128   0.0000       0.651648        17.7322 
 129   0.0000       0.655984        17.8502 
 130   0.0000       0.676465        18.4075 
 131   0.0000       0.685373        18.6499 
 132   0.0000       0.696382        18.9495 
 133   0.0000       0.698197        18.9989 
 134   0.0000       0.705847        19.2071 
 135   0.0000       0.714673        19.4472 
 136   0.0000       0.724131        19.7046 
 137   0.0000       0.727297        19.7908 
 138   0.0000       0.729996        19.8642 
 139   0.0000       0.736477        20.0406 
 140   0.0000       0.741419        20.1750 
 141   0.0000       0.744698        20.2643 
 142   0.0000       0.747724        20.3466 
 143   0.0000       0.755449        20.5568 
 144   0.0000       0.760493        20.6941 
 145   0.0000       0.769777        20.9467 
 146   0.0000       0.771407        20.9911 
 147   0.0000       0.775982        21.1155 
 148   0.0000       0.777980        21.1699 
 149   0.0000       0.781113        21.2552 
 150   0.0000       0.786240        21.3947 
 151   0.0000       0.790970        21.5234 
 152   0.0000       0.795542        21.6478 
 153   0.0000       0.796035        21.6612 
 154   0.0000       0.800453        21.7814 
 155   0.0000       0.801114        21.7994 
 156   0.0000       0.805797        21.9268 
 157   0.0000       0.813108        22.1258 
 158   0.0000       0.813914        22.1477 
 159   0.0000       0.818399        22.2698 
 160   0.0000       0.826654        22.4944 
 161   0.0000       0.833820        22.6894 
 162   0.0000       0.840496        22.8711 
 163   0.0000       0.845843        23.0166 
 164   0.0000       0.852496        23.1976 
 165   0.0000       0.871498        23.7147 
 166   0.0000       0.879122        23.9221 
 167   0.0000       0.882877        24.0243 
 168   0.0000       0.890262        24.2252 
 169   0.0000       0.894933        24.3524 
 170   0.0000       0.913893        24.8683 
 171   0.0000       0.923559        25.1313 
 172   0.0000       0.930131        25.3101 
 173   0.0000       0.941480        25.6190 
 174   0.0000       0.954750        25.9801 
 175   0.0000       0.963769        26.2255 
 176   0.0000       0.966071        26.2881 
 177   0.0000       0.991846        26.9895 
 178   0.0000       1.000753        27.2319 
 179   0.0000       1.023416        27.8486 
 180   0.0000       1.042547        28.3692 
 181   0.0000       1.062100        28.9012 
 182   0.0000       1.071491        29.1568 
 183   0.0000       1.098254        29.8850 
 184   0.0000       1.107872        30.1467 
 185   0.0000       1.119407        30.4606 
 186   0.0000       1.141115        31.0513 
 187   0.0000       1.144897        31.1542 
 188   0.0000       1.165987        31.7281 
 189   0.0000       1.204559        32.7777 
 190   0.0000       1.219738        33.1907 
 191   0.0000       1.227151        33.3925 
 192   0.0000       1.253671        34.1141 
 193   0.0000       1.258698        34.2509 
 194   0.0000       1.292077        35.1592 
 195   0.0000       1.294041        35.2127 
 196   0.0000       1.317360        35.8472 
 197   0.0000       1.329281        36.1716 
 198   0.0000       1.341641        36.5079 
 199   0.0000       1.376516        37.4569 
 200   0.0000       1.388108        37.7723 
 201   0.0000       1.408204        38.3192 
 202   0.0000       1.423322        38.7306 
 203   0.0000       1.442024        39.2395 
 204   0.0000       1.466229        39.8981 
 205   0.0000       1.477025        40.1919 
 206   0.0000       1.482429        40.3389 
 207   0.0000       1.521167        41.3931 
 208   0.0000       1.539533        41.8928 
 209   0.0000       1.550831        42.2003 
 210   0.0000       1.571250        42.7559 
 211   0.0000       1.608214        43.7617 
 212   0.0000       1.625808        44.2405 
 213   0.0000       1.648040        44.8454 
 214   0.0000       1.659657        45.1616 
 215   0.0000       1.684112        45.8270 
 216   0.0000       1.686043        45.8796 
 217   0.0000       1.725475        46.9526 
 218   0.0000       1.745215        47.4897 
 219   0.0000       1.762110        47.9494 
 220   0.0000       1.773351        48.2553 
 221   0.0000       1.786892        48.6238 
 222   0.0000       1.808330        49.2072 
 223   0.0000       1.812754        49.3275 
 224   0.0000       1.826361        49.6978 
 225   0.0000       1.835893        49.9572 
 226   0.0000       1.844324        50.1866 
 227   0.0000       1.848183        50.2916 
 228   0.0000       1.858219        50.5647 
 229   0.0000       1.859963        50.6122 
 230   0.0000       1.868184        50.8359 
 231   0.0000       1.876475        51.0615 
 232   0.0000       1.877587        51.0917 
 233   0.0000       1.883313        51.2475 
 234   0.0000       1.895252        51.5724 
 235   0.0000       1.899678        51.6929 
 236   0.0000       1.908298        51.9274 
 237   0.0000       1.922146        52.3043 
 238   0.0000       1.933484        52.6128 
 239   0.0000       1.950080        53.0644 
 240   0.0000       1.954742        53.1912 
 241   0.0000       1.958171        53.2846 
 242   0.0000       1.974106        53.7182 
 243   0.0000       1.974379        53.7256 
 244   0.0000       1.978770        53.8451 
 245   0.0000       1.986170        54.0464 
 246   0.0000       1.999777        54.4167 
 247   0.0000       2.006235        54.5924 
 248   0.0000       2.013276        54.7840 
 249   0.0000       2.031100        55.2690 
 250   0.0000       2.048263        55.7361 
 251   0.0000       2.057403        55.9848 
 252   0.0000       2.064185        56.1693 
 253   0.0000       2.076579        56.5066 
 254   0.0000       2.083531        56.6958 
 255   0.0000       2.086658        56.7809 
 256   0.0000       2.097356        57.0720 
 257   0.0000       2.109507        57.4026 
 258   0.0000       2.118481        57.6468 
 259   0.0000       2.127114        57.8817 
 260   0.0000       2.161598        58.8201 
 261   0.0000       2.184536        59.4442 
 262   0.0000       2.194873        59.7255 
 263   0.0000       2.199865        59.8614 
 264   0.0000       2.223973        60.5174 
 265   0.0000       2.234584        60.8061 
 266   0.0000       2.252114        61.2831 
 267   0.0000       2.265358        61.6435 
 268   0.0000       2.288096        62.2623 
 269   0.0000       2.316170        63.0262 
 270   0.0000       2.334399        63.5222 
 271   0.0000       2.345079        63.8129 
 272   0.0000       2.360096        64.2215 
 273   0.0000       2.367735        64.4293 
 274   0.0000       2.399350        65.2896 
 275   0.0000       2.404683        65.4348 
 276   0.0000       2.431864        66.1744 
 277   0.0000       2.440687        66.4145 
 278   0.0000       2.465229        67.0823 
 279   0.0000       2.474308        67.3293 
 280   0.0000       2.492278        67.8183 
 281   0.0000       2.494418        67.8766 
 282   0.0000       2.512358        68.3647 
 283   0.0000       2.519690        68.5642 
 284   0.0000       2.527107        68.7661 
 285   0.0000       2.551465        69.4289 
 286   0.0000       2.569182        69.9110 
 287   0.0000       2.581167        70.2371 
 288   0.0000       2.605698        70.9047 
 289   0.0000       2.627863        71.5078 
 290   0.0000       2.644095        71.9495 
 291   0.0000       2.649475        72.0959 
 292   0.0000       2.681624        72.9707 
 293   0.0000       2.685412        73.0738 
 294   0.0000       2.697335        73.3982 
 295   0.0000       2.723406        74.1076 
 296   0.0000       2.743598        74.6571 
 297   0.0000       2.767408        75.3050 
 298   0.0000       2.782038        75.7031 
 299   0.0000       2.801225        76.2252 
 300   0.0000       2.842796        77.3564 
 301   0.0000       2.851346        77.5891 
 302   0.0000       2.892357        78.7050 
 303   0.0000       2.912604        79.2560 
 304   0.0000       2.953019        80.3557 
 305   0.0000       2.982866        81.1679 
 306   0.0000       2.999570        81.6225 
 307   0.0000       3.005790        81.7917 
 308   0.0000       3.018675        82.1423 
 309   0.0000       3.056755        83.1785 
 310   0.0000       3.066992        83.4571 
 311   0.0000       3.082331        83.8745 
 312   0.0000       3.094567        84.2075 
 313   0.0000       3.107021        84.5463 
 314   0.0000       3.121592        84.9428 
 315   0.0000       3.167272        86.1858 
 316   0.0000       3.180097        86.5348 
 317   0.0000       3.194599        86.9295 
 318   0.0000       3.208469        87.3069 
 319   0.0000       3.283281        89.3426 
 320   0.0000       3.349631        91.1481 
 321   0.0000       3.409789        92.7851 

                    ********************************
                    * MULLIKEN POPULATION ANALYSIS *
                    ********************************

-----------------------
MULLIKEN ATOMIC CHARGES
-----------------------
   0 S :    0.100072
   1 C :   -0.139281
   2 C :   -0.091002
   3 C :    0.021638
   4 C :   -0.143717
   5 H :    0.007232
   6 C :    0.060068
   7 H :    0.022590
   8 H :    0.045406
   9 C :   -0.051864
  10 H :    0.035840
  11 H :    0.026030
  12 C :   -0.040220
  13 H :    0.023811
  14 H :    0.018339
  15 H :    0.031468
  16 S :    0.120900
  17 C :   -0.085681
  18 C :   -0.063410
  19 C :   -0.022474
  20 C :   -0.185133
  21 H :    0.040815
  22 C :    0.092915
  23 H :    0.027810
  24 H :    0.035740
  25 C :   -0.041332
  26 H :    0.017068
  27 H :    0.009077
  28 C :   -0.102012
  29 H :    0.040694
  30 H :    0.032561
  31 H :    0.040390
  32 H :    0.060046
  33 H :    0.055615
Sum of atomic charges:   -0.0000000

--------------------------------
MULLIKEN REDUCED ORBITAL CHARGES
--------------------------------
  0 S s       :     5.850109  s :     5.850109
      pz      :     3.159314  p :     9.948446
      px      :     3.634133
      py      :     3.154999
      dz2     :     0.036309  d :     0.101372
      dxz     :     0.014597
      dyz     :     0.013955
      dx2y2   :     0.020580
      dxy     :     0.015932
  1 C s       :     3.200915  s :     3.200915
      pz      :     0.973557  p :     2.905708
      px      :     1.079564
      py      :     0.852587
      dz2     :     0.009027  d :     0.032659
      dxz     :     0.006666
      dyz     :     0.007283
      dx2y2   :     0.005147
      dxy     :     0.004535
  2 C s       :     3.098390  s :     3.098390
      pz      :     0.963240  p :     2.950266
      px      :     0.978654
      py      :     1.008373
      dz2     :     0.009542  d :     0.042346
      dxz     :     0.008336
      dyz     :     0.012850
      dx2y2   :     0.006080
      dxy     :     0.005536
  3 C s       :     3.184595  s :     3.184595
      pz      :     0.844033  p :     2.760307
      px      :     1.004583
      py      :     0.911691
      dz2     :     0.008155  d :     0.033459
      dxz     :     0.003714
      dyz     :     0.009032
      dx2y2   :     0.005867
      dxy     :     0.006691
  4 C s       :     3.053039  s :     3.053039
      pz      :     0.955339  p :     3.045500
      px      :     1.078888
      py      :     1.011273
      dz2     :     0.013551  d :     0.045178
      dxz     :     0.006804
      dyz     :     0.010780
      dx2y2   :     0.006471
      dxy     :     0.007572
  5 H s       :     0.968665  s :     0.968665
      pz      :     0.015079  p :     0.024102
      px      :     0.005454
      py      :     0.003569
  6 C s       :     2.994782  s :     2.994782
      pz      :     0.972417  p :     2.909228
      px      :     0.987360
      py      :     0.949451
      dz2     :     0.005148  d :     0.035922
      dxz     :     0.008592
      dyz     :     0.006426
      dx2y2   :     0.008645
      dxy     :     0.007111
  7 H s       :     0.954691  s :     0.954691
      pz      :     0.011965  p :     0.022720
      px      :     0.006337
      py      :     0.004417
  8 H s       :     0.933089  s :     0.933089
      pz      :     0.007927  p :     0.021505
      px      :     0.005416
      py      :     0.008161
  9 C s       :     3.035197  s :     3.035197
      pz      :     1.015578  p :     2.980189
      px      :     0.954000
      py      :     1.010612
      dz2     :     0.007395  d :     0.036477
      dxz     :     0.008285
      dyz     :     0.004211
      dx2y2   :     0.011217
      dxy     :     0.005369
 10 H s       :     0.943464  s :     0.943464
      pz      :     0.011243  p :     0.020696
      px      :     0.005199
      py      :     0.004254
 11 H s       :     0.949793  s :     0.949793
      pz      :     0.005502  p :     0.024178
      px      :     0.004768
      py      :     0.013908
 12 C s       :     2.993865  s :     2.993865
      pz      :     1.005884  p :     3.018283
      px      :     1.012087
      py      :     1.000311
      dz2     :     0.005990  d :     0.028073
      dxz     :     0.005221
      dyz     :     0.005418
      dx2y2   :     0.006232
      dxy     :     0.005211
 13 H s       :     0.950386  s :     0.950386
      pz      :     0.006121  p :     0.025803
      px      :     0.012715
      py      :     0.006967
 14 H s       :     0.957544  s :     0.957544
      pz      :     0.011524  p :     0.024117
      px      :     0.006431
      py      :     0.006162
 15 H s       :     0.943887  s :     0.943887
      pz      :     0.006356  p :     0.024645
      px      :     0.005511
      py      :     0.012778
 16 S s       :     5.853013  s :     5.853013
      pz      :     3.568532  p :     9.915490
      px      :     3.383734
      py      :     2.963223
      dz2     :     0.012957  d :     0.110597
      dxz     :     0.013444
      dyz     :     0.026529
      dx2y2   :     0.015340
      dxy     :     0.042328
 17 C s       :     3.138928  s :     3.138928
      pz      :     1.035813  p :     2.912312
      px      :     0.942888
      py      :     0.933611
      dz2     :     0.005145  d :     0.034440
      dxz     :     0.006020
      dyz     :     0.006241
      dx2y2   :     0.007384
      dxy     :     0.009650
 18 C s       :     3.183334  s :     3.183334
      pz      :     0.959964  p :     2.844864
      px      :     0.925492
      py      :     0.959408
      dz2     :     0.003967  d :     0.035212
      dxz     :     0.004957
      dyz     :     0.008238
      dx2y2   :     0.009534
      dxy     :     0.008516
 19 C s       :     3.062590  s :     3.062590
      pz      :     0.984967  p :     2.918585
      px      :     0.971977
      py      :     0.961641
      dz2     :     0.006173  d :     0.041298
      dxz     :     0.006150
      dyz     :     0.006702
      dx2y2   :     0.012124
      dxy     :     0.010150
 20 C s       :     3.065076  s :     3.065076
      pz      :     1.100452  p :     3.075013
      px      :     1.016501
      py      :     0.958060
      dz2     :     0.006784  d :     0.045044
      dxz     :     0.005986
      dyz     :     0.008789
      dx2y2   :     0.009253
      dxy     :     0.014232
 21 H s       :     0.936536  s :     0.936536
      pz      :     0.008540  p :     0.022649
      px      :     0.008576
      py      :     0.005533
 22 C s       :     2.964304  s :     2.964304
      pz      :     0.969909  p :     2.907312
      px      :     0.970694
      py      :     0.966709
      dz2     :     0.009217  d :     0.035469
      dxz     :     0.005180
      dyz     :     0.008124
      dx2y2   :     0.004981
      dxy     :     0.007968
 23 H s       :     0.949772  s :     0.949772
      pz      :     0.004746  p :     0.022418
      px      :     0.010905
      py      :     0.006767
 24 H s       :     0.941724  s :     0.941724
      pz      :     0.007193  p :     0.022536
      px      :     0.004021
      py      :     0.011322
 25 C s       :     3.002098  s :     3.002098
      pz      :     0.963903  p :     3.000215
      px      :     1.035403
      py      :     1.000909
      dz2     :     0.010813  d :     0.039019
      dxz     :     0.006336
      dyz     :     0.009254
      dx2y2   :     0.005312
      dxy     :     0.007304
 26 H s       :     0.958314  s :     0.958314
      pz      :     0.004671  p :     0.024618
      px      :     0.009022
      py      :     0.010925
 27 H s       :     0.966866  s :     0.966866
      pz      :     0.004564  p :     0.024056
      px      :     0.013771
      py      :     0.005722
 28 C s       :     3.051883  s :     3.051883
      pz      :     1.017406  p :     3.022475
      px      :     1.011675
      py      :     0.993395
      dz2     :     0.006929  d :     0.027653
      dxz     :     0.001682
      dyz     :     0.005612
      dx2y2   :     0.005330
      dxy     :     0.008101
 29 H s       :     0.935802  s :     0.935802
      pz      :     0.004521  p :     0.023504
      px      :     0.013618
      py      :     0.005365
 30 H s       :     0.944744  s :     0.944744
      pz      :     0.011467  p :     0.022695
      px      :     0.004867
      py      :     0.006360
 31 H s       :     0.935798  s :     0.935798
      pz      :     0.005018  p :     0.023812
      px      :     0.008495
      py      :     0.010300
 32 H s       :     0.916706  s :     0.916706
      pz      :     0.010564  p :     0.023247
      px      :     0.006861
      py      :     0.005822
 33 H s       :     0.920090  s :     0.920090
      pz      :     0.006415  p :     0.024295
      px      :     0.004344
      py      :     0.013536


                     *******************************
                     * LOEWDIN POPULATION ANALYSIS *
                     *******************************

----------------------
LOEWDIN ATOMIC CHARGES
----------------------
   0 S :    0.382678
   1 C :   -0.191103
   2 C :   -0.059537
   3 C :   -0.068980
   4 C :   -0.195437
   5 H :    0.027390
   6 C :   -0.031692
   7 H :    0.028329
   8 H :    0.041813
   9 C :   -0.039318
  10 H :    0.034507
  11 H :    0.018622
  12 C :   -0.068718
  13 H :    0.020964
  14 H :    0.023983
  15 H :    0.028876
  16 S :    0.425353
  17 C :   -0.187727
  18 C :   -0.068010
  19 C :   -0.052314
  20 C :   -0.212301
  21 H :    0.039820
  22 C :   -0.034428
  23 H :    0.036972
  24 H :    0.034161
  25 C :   -0.041285
  26 H :    0.021214
  27 H :    0.020074
  28 C :   -0.073686
  29 H :    0.020284
  30 H :    0.036088
  31 H :    0.024247
  32 H :    0.029978
  33 H :    0.029182

-------------------------------
LOEWDIN REDUCED ORBITAL CHARGES
-------------------------------
  0 S s       :     5.524330  s :     5.524330
      pz      :     3.203301  p :     9.968463
      px      :     3.595482
      py      :     3.169680
      dz2     :     0.047143  d :     0.124529
      dxz     :     0.017058
      dyz     :     0.016142
      dx2y2   :     0.025220
      dxy     :     0.018966
  1 C s       :     2.941225  s :     2.941225
      pz      :     1.082220  p :     3.172447
      px      :     1.095316
      py      :     0.994911
      dz2     :     0.024591  d :     0.077431
      dxz     :     0.013404
      dyz     :     0.019593
      dx2y2   :     0.010684
      dxy     :     0.009160
  2 C s       :     2.876282  s :     2.876282
      pz      :     1.068020  p :     3.080451
      px      :     0.981640
      py      :     1.030790
      dz2     :     0.026142  d :     0.102804
      dxz     :     0.018097
      dyz     :     0.034793
      dx2y2   :     0.012203
      dxy     :     0.011570
  3 C s       :     2.871526  s :     2.871526
      pz      :     1.044642  p :     3.108748
      px      :     1.023954
      py      :     1.040152
      dz2     :     0.022235  d :     0.088705
      dxz     :     0.008133
      dyz     :     0.027864
      dx2y2   :     0.015134
      dxy     :     0.015340
  4 C s       :     2.906681  s :     2.906681
      pz      :     1.024431  p :     3.180444
      px      :     1.062121
      py      :     1.093892
      dz2     :     0.032087  d :     0.108313
      dxz     :     0.013973
      dyz     :     0.029150
      dx2y2   :     0.017000
      dxy     :     0.016103
  5 H s       :     0.901509  s :     0.901509
      pz      :     0.042828  p :     0.071101
      px      :     0.016634
      py      :     0.011638
  6 C s       :     2.833030  s :     2.833030
      pz      :     1.048386  p :     3.108625
      px      :     1.040660
      py      :     1.019579
      dz2     :     0.013685  d :     0.090038
      dxz     :     0.020135
      dyz     :     0.016936
      dx2y2   :     0.023245
      dxy     :     0.016036
  7 H s       :     0.904052  s :     0.904052
      pz      :     0.034551  p :     0.067618
      px      :     0.019956
      py      :     0.013111
  8 H s       :     0.896413  s :     0.896413
      pz      :     0.021949  p :     0.061774
      px      :     0.016104
      py      :     0.023721
  9 C s       :     2.832918  s :     2.832918
      pz      :     1.043004  p :     3.117226
      px      :     1.017702
      py      :     1.056520
      dz2     :     0.017943  d :     0.089175
      dxz     :     0.019238
      dyz     :     0.010922
      dx2y2   :     0.028142
      dxy     :     0.012930
 10 H s       :     0.907487  s :     0.907487
      pz      :     0.031496  p :     0.058005
      px      :     0.015561
      py      :     0.010948
 11 H s       :     0.907193  s :     0.907193
      pz      :     0.017159  p :     0.074185
      px      :     0.015969
      py      :     0.041058
 12 C s       :     2.826040  s :     2.826040
      pz      :     1.057064  p :     3.171856
      px      :     1.061889
      py      :     1.052902
      dz2     :     0.013232  d :     0.070822
      dxz     :     0.014387
      dyz     :     0.014411
      dx2y2   :     0.014809
      dxy     :     0.013984
 13 H s       :     0.905074  s :     0.905074
      pz      :     0.017921  p :     0.073963
      px      :     0.036511
      py      :     0.019530
 14 H s       :     0.909731  s :     0.909731
      pz      :     0.032249  p :     0.066286
      px      :     0.017454
      py      :     0.016583
 15 H s       :     0.902813  s :     0.902813
      pz      :     0.017431  p :     0.068311
      px      :     0.015312
      py      :     0.035568
 16 S s       :     5.505038  s :     5.505038
      pz      :     3.544441  p :     9.932577
      px      :     3.407561
      py      :     2.980576
      dz2     :     0.015480  d :     0.137032
      dxz     :     0.014545
      dyz     :     0.033365
      dx2y2   :     0.018420
      dxy     :     0.055223
 17 C s       :     2.939111  s :     2.939111
      pz      :     1.075168  p :     3.168731
      px      :     1.046421
      py      :     1.047142
      dz2     :     0.010266  d :     0.079885
      dxz     :     0.014392
      dyz     :     0.013196
      dx2y2   :     0.017599
      dxy     :     0.024432
 18 C s       :     2.874391  s :     2.874391
      pz      :     1.011868  p :     3.102321
      px      :     1.047009
      py      :     1.043445
      dz2     :     0.008430  d :     0.091298
      dxz     :     0.012973
      dyz     :     0.019988
      dx2y2   :     0.026614
      dxy     :     0.023293
 19 C s       :     2.866549  s :     2.866549
      pz      :     1.009954  p :     3.082779
      px      :     1.026986
      py      :     1.045839
      dz2     :     0.012978  d :     0.102985
      dxz     :     0.016122
      dyz     :     0.015617
      dx2y2   :     0.032040
      dxy     :     0.026229
 20 C s       :     2.904417  s :     2.904417
      pz      :     1.094724  p :     3.198881
      px      :     1.077744
      py      :     1.026413
      dz2     :     0.014478  d :     0.109003
      dxz     :     0.014737
      dyz     :     0.021779
      dx2y2   :     0.023235
      dxy     :     0.034774
 21 H s       :     0.895052  s :     0.895052
      pz      :     0.023700  p :     0.065128
      px      :     0.024408
      py      :     0.017020
 22 C s       :     2.827716  s :     2.827716
      pz      :     1.044304  p :     3.116709
      px      :     1.027845
      py      :     1.044561
      dz2     :     0.024969  d :     0.090002
      dxz     :     0.010833
      dyz     :     0.020575
      dx2y2   :     0.012214
      dxy     :     0.021411
 23 H s       :     0.899821  s :     0.899821
      pz      :     0.013063  p :     0.063208
      px      :     0.031344
      py      :     0.018800
 24 H s       :     0.899025  s :     0.899025
      pz      :     0.021517  p :     0.066814
      px      :     0.012196
      py      :     0.033101
 25 C s       :     2.816967  s :     2.816967
      pz      :     1.013194  p :     3.128995
      px      :     1.080485
      py      :     1.035315
      dz2     :     0.027147  d :     0.095323
      dxz     :     0.013735
      dyz     :     0.023092
      dx2y2   :     0.013524
      dxy     :     0.017825
 26 H s       :     0.903998  s :     0.903998
      pz      :     0.017535  p :     0.074788
      px      :     0.024739
      py      :     0.032515
 27 H s       :     0.910002  s :     0.910002
      pz      :     0.016078  p :     0.069924
      px      :     0.036643
      py      :     0.017203
 28 C s       :     2.848321  s :     2.848321
      pz      :     1.050754  p :     3.156753
      px      :     1.066615
      py      :     1.039385
      dz2     :     0.016526  d :     0.068612
      dxz     :     0.003836
      dyz     :     0.015119
      dx2y2   :     0.013372
      dxy     :     0.019759
 29 H s       :     0.910571  s :     0.910571
      pz      :     0.014108  p :     0.069145
      px      :     0.038911
      py      :     0.016126
 30 H s       :     0.903071  s :     0.903071
      pz      :     0.032239  p :     0.060842
      px      :     0.012184
      py      :     0.016418
 31 H s       :     0.909207  s :     0.909207
      pz      :     0.014317  p :     0.066546
      px      :     0.022661
      py      :     0.029568
 32 H s       :     0.896824  s :     0.896824
      pz      :     0.030791  p :     0.073198
      px      :     0.022076
      py      :     0.020331
 33 H s       :     0.895906  s :     0.895906
      pz      :     0.021534  p :     0.074911
      px      :     0.013554
      py      :     0.039824


                      *****************************
                      * MAYER POPULATION ANALYSIS *
                      *****************************

  NA   - Mulliken gross atomic population
  ZA   - Total nuclear charge
  QA   - Mulliken gross atomic charge
  VA   - Mayer's total valence
  BVA  - Mayer's bonded valence
  FA   - Mayer's free valence

  ATOM       NA         ZA         QA         VA         BVA        FA
  0 S     15.8999    16.0000     0.1001     2.4616     2.4616     0.0000
  1 C      6.1393     6.0000    -0.1393     3.8419     3.8419     0.0000
  2 C      6.0910     6.0000    -0.0910     3.9618     3.9618     0.0000
  3 C      5.9784     6.0000     0.0216     3.9268     3.9268    -0.0000
  4 C      6.1437     6.0000    -0.1437     3.9174     3.9174    -0.0000
  5 H      0.9928     1.0000     0.0072     1.0055     1.0055     0.0000
  6 C      5.9399     6.0000     0.0601     3.9711     3.9711     0.0000
  7 H      0.9774     1.0000     0.0226     0.9910     0.9910     0.0000
  8 H      0.9546     1.0000     0.0454     0.9823     0.9823    -0.0000
  9 C      6.0519     6.0000    -0.0519     4.0857     4.0857    -0.0000
 10 H      0.9642     1.0000     0.0358     0.9786     0.9786    -0.0000
 11 H      0.9740     1.0000     0.0260     0.9800     0.9800     0.0000
 12 C      6.0402     6.0000    -0.0402     3.9796     3.9796     0.0000
 13 H      0.9762     1.0000     0.0238     0.9920     0.9920     0.0000
 14 H      0.9817     1.0000     0.0183     0.9938     0.9938     0.0000
 15 H      0.9685     1.0000     0.0315     0.9908     0.9908     0.0000
 16 S     15.8791    16.0000     0.1209     2.4976     2.4976     0.0000
 17 C      6.0857     6.0000    -0.0857     3.8366     3.8366    -0.0000
 18 C      6.0634     6.0000    -0.0634     3.9779     3.9779    -0.0000
 19 C      6.0225     6.0000    -0.0225     4.0299     4.0299    -0.0000
 20 C      6.1851     6.0000    -0.1851     3.9137     3.9137    -0.0000
 21 H      0.9592     1.0000     0.0408     0.9977     0.9977     0.0000
 22 C      5.9071     6.0000     0.0929     3.9750     3.9750    -0.0000
 23 H      0.9722     1.0000     0.0278     0.9851     0.9851     0.0000
 24 H      0.9643     1.0000     0.0357     0.9912     0.9912     0.0000
 25 C      6.0413     6.0000    -0.0413     4.0688     4.0688    -0.0000
 26 H      0.9829     1.0000     0.0171     0.9803     0.9803    -0.0000
 27 H      0.9909     1.0000     0.0091     0.9826     0.9826    -0.0000
 28 C      6.1020     6.0000    -0.1020     4.0095     4.0095     0.0000
 29 H      0.9593     1.0000     0.0407     0.9866     0.9866    -0.0000
 30 H      0.9674     1.0000     0.0326     0.9841     0.9841    -0.0000
 31 H      0.9596     1.0000     0.0404     0.9938     0.9938     0.0000
 32 H      0.9400     1.0000     0.0600     1.0001     1.0001    -0.0000
 33 H      0.9444     1.0000     0.0556     0.9968     0.9968    -0.0000

  Mayer bond orders larger than 0.100000
B(  0-S ,  1-C ) :   1.1215 B(  0-S ,  4-C ) :   1.1413 B(  1-C ,  2-C ) :   1.6355 
B(  1-C , 32-H ) :   0.9674 B(  2-C ,  3-C ) :   1.2118 B(  2-C ,  6-C ) :   1.0023 
B(  3-C ,  4-C ) :   1.6074 B(  3-C ,  5-H ) :   0.9910 B(  4-C , 20-C ) :   1.0261 
B(  6-C ,  7-H ) :   0.9427 B(  6-C ,  8-H ) :   0.9426 B(  6-C ,  9-C ) :   1.0821 
B(  9-C , 10-H ) :   0.9555 B(  9-C , 11-H ) :   0.9578 B(  9-C , 12-C ) :   1.0632 
B( 12-C , 13-H ) :   0.9755 B( 12-C , 14-H ) :   0.9768 B( 12-C , 15-H ) :   0.9735 
B( 16-S , 17-C ) :   1.1355 B( 16-S , 20-C ) :   1.1758 B( 17-C , 18-C ) :   1.6268 
B( 17-C , 20-C ) :   0.1001 B( 17-C , 33-H ) :   0.9598 B( 18-C , 19-C ) :   1.2573 
B( 18-C , 21-H ) :   0.9703 B( 19-C , 20-C ) :   1.5649 B( 19-C , 22-C ) :   1.0483 
B( 22-C , 23-H ) :   0.9379 B( 22-C , 24-H ) :   0.9310 B( 22-C , 25-C ) :   1.0660 
B( 25-C , 26-H ) :   0.9543 B( 25-C , 27-H ) :   0.9478 B( 25-C , 28-C ) :   1.0798 
B( 28-C , 29-H ) :   0.9766 B( 28-C , 30-H ) :   0.9721 B( 28-C , 31-H ) :   0.9694 


-------
TIMINGS
-------

Total SCF time: 0 days 0 hours 0 min 19 sec 

Total time                  ....      19.663 sec
Sum of individual times     ....      18.790 sec  ( 95.6%)

Fock matrix formation       ....      17.130 sec  ( 87.1%)
  XC integration            ....       1.499 sec  (  8.8% of F)
    Basis function eval.    ....       0.140 sec  (  9.3% of XC)
    Density eval.           ....       0.103 sec  (  6.9% of XC)
    XC-Functional eval.     ....       0.111 sec  (  7.4% of XC)
    XC-Potential eval.      ....       0.119 sec  (  8.0% of XC)
Diagonalization             ....       0.139 sec  (  0.7%)
Density matrix formation    ....       0.026 sec  (  0.1%)
Population analysis         ....       0.057 sec  (  0.3%)
Initial guess               ....       0.171 sec  (  0.9%)
Orbital Transformation      ....       0.000 sec  (  0.0%)
Orbital Orthonormalization  ....       0.000 sec  (  0.0%)
DIIS solution               ....       0.154 sec  (  0.8%)
SOSCF solution              ....       0.126 sec  (  0.6%)
Grid generation             ....       0.987 sec  (  5.0%)


-------------------------------------------------------------------------------
                          DFT DISPERSION CORRECTION                            
                                                                               
                              DFTD3 V3.1  Rev 1                                
                              USING zero damping                               
-------------------------------------------------------------------------------
The omegaB97X-D3 functional is recognized. Fit by Chai et al.
Active option DFTDOPT                   ...         3   

molecular C6(AA) [au] = 14204.614778 


            DFT-D V3
 parameters
 s6 scaling factor         :     1.0000 
 rs6 scaling factor        :     1.2810 
 s8 scaling factor         :     1.0000 
 rs8 scaling factor        :     1.0940 
 Damping factor alpha6     :    14.0000 
 Damping factor alpha8     :    16.0000 
 ad hoc parameters k1-k3   :    16.0000     1.3333    -4.0000 

 Edisp/kcal,au: -9.130610270431  -0.014550552101 
 E6   /kcal   :  -4.240879726 
 E8   /kcal   :  -4.889730545 
 % E8         :  53.553162385 

-------------------------   ----------------
Dispersion correction           -0.014550552
-------------------------   ----------------


-------------------------   --------------------
FINAL SINGLE POINT ENERGY     -1339.873111545203
-------------------------   --------------------


                            ***************************************
                            *     ORCA property calculations      *
                            ***************************************

                                    ---------------------
                                    Active property flags
                                    ---------------------
   (+) Dipole Moment


------------------------------------------------------------------------------
                       ORCA ELECTRIC PROPERTIES CALCULATION
------------------------------------------------------------------------------

Dipole Moment Calculation                       ... on
Quadrupole Moment Calculation                   ... off
Polarizability Calculation                      ... off
GBWName                                         ... config_8338.gbw
Electron density file                           ... config_8338.scfp
The origin for moment calculation is the CENTER OF MASS  = (-101.102882, -92.151718 -153.715270)

-------------
DIPOLE MOMENT
-------------
                                X             Y             Z
Electronic contribution:     -2.30236     -14.08173      19.46995
Nuclear contribution   :      2.36007      14.47508     -20.08293
                        -----------------------------------------
Total Dipole Moment    :      0.05771       0.39335      -0.61298
                        -----------------------------------------
Magnitude (a.u.)       :      0.73061
Magnitude (Debye)      :      1.85707



--------------------
Rotational spectrum 
--------------------
 
Rotational constants in cm-1:     0.019452     0.008341     0.007048 
Rotational constants in MHz :   583.147603   250.053206   211.299087 

 Dipole components along the rotational axes: 
x,y,z [a.u.] :     0.063350    -0.707245    -0.172015 
x,y,z [Debye]:     0.161024    -1.797673    -0.437228 

 

Timings for individual modules:

Sum of individual times         ...       20.849 sec (=   0.347 min)
GTO integral calculation        ...        0.806 sec (=   0.013 min)   3.9 %
SCF iterations                  ...       20.043 sec (=   0.334 min)  96.1 %
                             ****ORCA TERMINATED NORMALLY****
TOTAL RUN TIME: 0 days 0 hours 0 minutes 21 seconds 542 msec
