
                                 *****************
                                 * O   R   C   A *
                                 *****************

           --- An Ab Initio, DFT and Semiempirical electronic structure package ---

                  #######################################################
                  #                        -***-                        #
                  #          Department of theory and spectroscopy      #
                  #               Directorship: Frank Neese             #
                  #        Max Planck Institute fuer Kohlenforschung    #
                  #                Kaiser Wilhelm Platz 1               #
                  #                 D-45470 Muelheim/Ruhr               #
                  #                      Germany                        #
                  #                                                     #
                  #                  All rights reserved                #
                  #                        -***-                        #
                  #######################################################


                         Program Version 4.2.1 -  RELEASE  -


 With contributions from (in alphabetic order):
   Daniel Aravena         : Magnetic Suceptibility
   Michael Atanasov       : Ab Initio Ligand Field Theory (pilot matlab implementation)
   Alexander A. Auer      : GIAO ZORA, VPT2
   Ute Becker             : Parallelization
   Giovanni Bistoni       : ED, misc. LED, open-shell LED, HFLD
   Martin Brehm           : Molecular dynamics
   Dmytro Bykov           : SCF Hessian
   Vijay G. Chilkuri      : MRCI spin determinant printing, contributions to CSF-ICE
   Dipayan Datta          : RHF DLPNO-CCSD density
   Achintya Kumar Dutta   : EOM-CC, STEOM-CC
   Dmitry Ganyushin       : Spin-Orbit,Spin-Spin,Magnetic field MRCI
   Miquel Garcia          : C-PCM Hessian, Gaussian charge scheme
   Yang Guo               : DLPNO-NEVPT2, CIM, IAO-localization
   Andreas Hansen         : Spin unrestricted coupled pair/coupled cluster methods
   Benjamin Helmich-Paris : CASSCF linear response (MC-RPA)
   Lee Huntington         : MR-EOM, pCC
   Robert Izsak           : Overlap fitted RIJCOSX, COSX-SCS-MP3, EOM
   Christian Kollmar      : KDIIS, OOCD, Brueckner-CCSD(T), CCSD density
   Simone Kossmann        : Meta GGA functionals, TD-DFT gradient, OOMP2, MP2 Hessian
   Martin Krupicka        : AUTO-CI
   Lucas Lang             : DCDCAS
   Dagmar Lenk            : GEPOL surface, SMD
   Dimitrios Liakos       : Extrapolation schemes; Compound Job, initial MDCI parallelization
   Dimitrios Manganas     : Further ROCIS development; embedding schemes
   Dimitrios Pantazis     : SARC Basis sets
   Taras Petrenko         : DFT Hessian,TD-DFT gradient, ASA, ECA, R-Raman, ABS, FL, XAS/XES, NRVS
   Peter Pinski           : DLPNO-MP2, DLPNO-MP2 Gradient
   Christoph Reimann      : Effective Core Potentials
   Marius Retegan         : Local ZFS, SOC
   Christoph Riplinger    : Optimizer, TS searches, QM/MM, DLPNO-CCSD(T), (RO)-DLPNO pert. Triples
   Tobias Risthaus        : Range-separated hybrids, TD-DFT gradient, RPA, STAB
   Michael Roemelt        : Original ROCIS implementation
   Masaaki Saitow         : Open-shell DLPNO-CCSD energy and density
   Barbara Sandhoefer     : DKH picture change effects
   Avijit Sen             : IP-ROCIS
   Kantharuban Sivalingam : CASSCF convergence, NEVPT2, FIC-MRCI
   Bernardo de Souza      : ESD, SOC TD-DFT
   Georgi Stoychev        : AutoAux, RI-MP2 NMR
   Willem Van den Heuvel  : Paramagnetic NMR
   Boris Wezisla          : Elementary symmetry handling
   Frank Wennmohs         : Technical directorship


 We gratefully acknowledge several colleagues who have allowed us to
 interface, adapt or use parts of their codes:
   Stefan Grimme, W. Hujo, H. Kruse,             : VdW corrections, initial TS optimization,
                  C. Bannwarth                     DFT functionals, gCP, sTDA/sTD-DF
   Ed Valeev, F. Pavosevic, A. Kumar             : LibInt (2-el integral package), F12 methods
   Garnet Chan, S. Sharma, J. Yang, R. Olivares  : DMRG
   Ulf Ekstrom                                   : XCFun DFT Library
   Mihaly Kallay                                 : mrcc  (arbitrary order and MRCC methods)
   Andreas Klamt, Michael Diedenhofen            : otool_cosmo (COSMO solvation model)
   Jiri Pittner, Ondrej Demel                    : Mk-CCSD
   Frank Weinhold                                : gennbo (NPA and NBO analysis)
   Christopher J. Cramer and Donald G. Truhlar   : smd solvation model
   Lars Goerigk                                  : TD-DFT with DH, B97 family of functionals
   V. Asgeirsson, H. Jonsson                     : NEB implementation
   FAccTs GmbH                                   : IRC, NEB, NEB-TS, Multilevel, MM, QM/MM, CI optimization
   S Lehtola, MJT Oliveira, MAL Marques          : LibXC Library


 Your calculation uses the libint2 library for the computation of 2-el integrals
 For citations please refer to: http://libint.valeyev.net

 Your ORCA version has been built with support for libXC version: 4.2.3
 For citations please refer to: https://tddft.org/programs/libxc/

 This ORCA versions uses:
   CBLAS   interface :  Fast vector & matrix operations
   LAPACKE interface :  Fast linear algebra routines
   SCALAPACK package :  Parallel linear algebra routines


Your calculation utilizes the atom-pairwise dispersion correction
with the zero-damping scheme (D30)
Cite in your paper:
S.Grimme, J.Antony, S.Ehrlich and H.Krieg, J.Chem.Phys., 132, (2010), 154104 
   

XCFun DFT library Copyright 2009-2010 Ulf Ekstrom and contributors.
See http://admol.org/xcfun for more information. This is free soft-
ware; see the source code for copying conditions. There is ABSOLUTELY
NO WARRANTY; not even for MERCHANTABILITY or FITNESS FOR A PARTICULAR
PURPOSE. For details see the documentation. Scientific users of this 
library should cite U. Ekstrom, L. Visscher, R. Bast, A. J. Thorvald-
sen and K. Ruud; J.Chem.Theor.Comp. 2010, DOI: 10.1021/ct100117s
XCFun Version 0.99 
----- Orbital basis set information -----
Your calculation utilizes the basis: def2-SVP
   F. Weigend and R. Ahlrichs, Phys. Chem. Chem. Phys. 7, 3297 (2005).

================================================================================
                                        WARNINGS
                       Please study these warnings very carefully!
================================================================================


INFO   : the flag for use of LIBINT has been found!

================================================================================
                                       INPUT FILE
================================================================================
NAME = config_8848.inp
|  1> ! wB97X-D3 SP def2-SVP
|  2> %pal
|  3> nprocs 24
|  4> end
|  5> 
|  6> * xyz 0 1
|  7> S 	 5.54352 	 -25.3036 	 -117.281 	 
|  8> C 	 6.9067 	 -24.1637 	 -117.195 	 
|  9> C 	 6.80188 	 -23.3222 	 -116.114 	 
| 10> C 	 5.63405 	 -23.6605 	 -115.306 	 
| 11> C 	 4.83047 	 -24.6808 	 -115.815 	 
| 12> H 	 5.31704 	 -23.1293 	 -114.45 	 
| 13> C 	 7.74632 	 -22.2051 	 -115.821 	 
| 14> H 	 7.07884 	 -21.3185 	 -115.647 	 
| 15> H 	 8.26679 	 -21.9521 	 -116.743 	 
| 16> C 	 8.75822 	 -22.5684 	 -114.837 	 
| 17> H 	 8.32365 	 -22.9748 	 -113.879 	 
| 18> H 	 9.3733 	 -23.3118 	 -115.28 	 
| 19> C 	 9.56209 	 -21.2992 	 -114.498 	 
| 20> H 	 10.0343 	 -20.7279 	 -115.333 	 
| 21> H 	 8.91233 	 -20.5995 	 -114.091 	 
| 22> H 	 10.3295 	 -21.571 	 -113.781 	 
| 23> S 	 2.30274 	 -23.6859 	 -115.126 	 
| 24> C 	 1.21626 	 -24.8297 	 -114.279 	 
| 25> C 	 1.67254 	 -26.1288 	 -114.365 	 
| 26> C 	 2.90603 	 -26.2379 	 -115.093 	 
| 27> C 	 3.50113 	 -24.9867 	 -115.296 	 
| 28> H 	 1.006 	 -26.9301 	 -113.884 	 
| 29> C 	 3.56581 	 -27.5981 	 -115.154 	 
| 30> H 	 4.58053 	 -27.5248 	 -115.575 	 
| 31> H 	 3.02684 	 -28.1987 	 -115.86 	 
| 32> C 	 3.70823 	 -28.4829 	 -113.849 	 
| 33> H 	 2.75859 	 -28.776 	 -113.52 	 
| 34> H 	 4.0418 	 -27.8599 	 -113.053 	 
| 35> C 	 4.59062 	 -29.7322 	 -114.076 	 
| 36> H 	 5.54717 	 -29.2298 	 -114.111 	 
| 37> H 	 4.37667 	 -30.4244 	 -114.868 	 
| 38> H 	 4.52948 	 -30.2112 	 -113.105 	 
| 39> H 	 7.82086 	 -24.2157 	 -117.762 	 
| 40> H 	 0.253938 	 -24.5336 	 -113.829 	 
| 41> *
| 42> 
| 43>                          ****END OF INPUT****
================================================================================

                       ****************************
                       * Single Point Calculation *
                       ****************************

---------------------------------
CARTESIAN COORDINATES (ANGSTROEM)
---------------------------------
  S      5.543520  -25.303600  -117.281000
  C      6.906700  -24.163700  -117.195000
  C      6.801880  -23.322200  -116.114000
  C      5.634050  -23.660500  -115.306000
  C      4.830470  -24.680800  -115.815000
  H      5.317040  -23.129300  -114.450000
  C      7.746320  -22.205100  -115.821000
  H      7.078840  -21.318500  -115.647000
  H      8.266790  -21.952100  -116.743000
  C      8.758220  -22.568400  -114.837000
  H      8.323650  -22.974800  -113.879000
  H      9.373300  -23.311800  -115.280000
  C      9.562090  -21.299200  -114.498000
  H     10.034300  -20.727900  -115.333000
  H      8.912330  -20.599500  -114.091000
  H     10.329500  -21.571000  -113.781000
  S      2.302740  -23.685900  -115.126000
  C      1.216260  -24.829700  -114.279000
  C      1.672540  -26.128800  -114.365000
  C      2.906030  -26.237900  -115.093000
  C      3.501130  -24.986700  -115.296000
  H      1.006000  -26.930100  -113.884000
  C      3.565810  -27.598100  -115.154000
  H      4.580530  -27.524800  -115.575000
  H      3.026840  -28.198700  -115.860000
  C      3.708230  -28.482900  -113.849000
  H      2.758590  -28.776000  -113.520000
  H      4.041800  -27.859900  -113.053000
  C      4.590620  -29.732200  -114.076000
  H      5.547170  -29.229800  -114.111000
  H      4.376670  -30.424400  -114.868000
  H      4.529480  -30.211200  -113.105000
  H      7.820860  -24.215700  -117.762000
  H      0.253938  -24.533600  -113.829000

----------------------------
CARTESIAN COORDINATES (A.U.)
----------------------------
  NO LB      ZA    FRAG     MASS         X           Y           Z
   0 S    16.0000    0    32.060   10.475735  -47.816874  -221.628971
   1 C     6.0000    0    12.011   13.051771  -45.662775  -221.466454
   2 C     6.0000    0    12.011   12.853690  -44.072571  -219.423660
   3 C     6.0000    0    12.011   10.646812  -44.711865  -217.896762
   4 C     6.0000    0    12.011    9.128265  -46.639953  -218.858632
   5 H     1.0000    0     1.008   10.047749  -43.708043  -216.279156
   6 C     6.0000    0    12.011   14.638423  -41.961558  -218.869971
   7 H     1.0000    0     1.008   13.377069  -40.286127  -218.541158
   8 H     1.0000    0     1.008   15.621969  -41.483457  -220.612298
   9 C     6.0000    0    12.011   16.550637  -42.648095  -217.010480
  10 H     1.0000    0     1.008   15.729419  -43.416080  -215.200122
  11 H     1.0000    0     1.008   17.712970  -44.052918  -217.847629
  12 C     6.0000    0    12.011   18.069731  -40.249655  -216.369863
  13 H     1.0000    0     1.008   18.962079  -39.170054  -217.947784
  14 H     1.0000    0     1.008   16.841863  -38.927413  -215.600744
  15 H     1.0000    0     1.008   19.519926  -40.763282  -215.014929
  16 S    16.0000    0    32.060    4.351548  -44.759864  -217.556611
  17 C     6.0000    0    12.011    2.298398  -46.921333  -215.956013
  18 C     6.0000    0    12.011    3.160643  -49.376276  -216.118529
  19 C     6.0000    0    12.011    5.491601  -49.582445  -217.494250
  20 C     6.0000    0    12.011    6.616177  -47.218020  -217.877864
  21 H     1.0000    0     1.008    1.901064  -50.890514  -215.209571
  22 C     6.0000    0    12.011    6.738404  -52.152851  -217.609523
  23 H     1.0000    0     1.008    8.655947  -52.014334  -218.405098
  24 H     1.0000    0     1.008    5.719899  -53.287820  -218.943670
  25 C     6.0000    0    12.011    7.007539  -53.824880  -215.143431
  26 H     1.0000    0     1.008    5.212980  -54.378759  -214.521711
  27 H     1.0000    0     1.008    7.637895  -52.647581  -213.639209
  28 C     6.0000    0    12.011    8.675015  -56.185715  -215.572398
  29 H     1.0000    0     1.008   10.482632  -55.236317  -215.638539
  30 H     1.0000    0     1.008    8.270708  -57.493784  -217.069062
  31 H     1.0000    0     1.008    8.559477  -57.090894  -213.737474
  32 H     1.0000    0     1.008   14.779284  -45.761041  -222.537929
  33 H     1.0000    0     1.008    0.479873  -46.361785  -215.105636

--------------------------------
INTERNAL COORDINATES (ANGSTROEM)
--------------------------------
 S      0   0   0     0.000000000000     0.00000000     0.00000000
 C      1   0   0     1.779052478821     0.00000000     0.00000000
 C      2   1   0     1.373925209900   111.83975495     0.00000000
 C      3   2   1     1.459841703371   110.76754267     3.15517409
 C      4   3   2     1.394931505989   115.36467659   356.19491128
 H      4   3   2     1.056127255637   124.90156587   183.01770717
 C      3   2   1     1.491887503668   124.39119023   183.89405595
 H      7   3   2     1.123327695020   104.19656732   129.79980369
 H      7   3   2     1.088568794748   108.08098137    20.27720643
 C      7   3   2     1.457458232678   112.67281933   261.85830844
 H     10   7   3     1.127730484158   113.31705068   306.12184314
 H     10   7   3     1.061704274457   107.16082084    66.38128645
 C     10   7   3     1.540128766337   107.79264358   186.50883318
 H     13  10   7     1.116508385145   118.54240095   305.42497257
 H     13  10   7     1.037987065237   108.36610224    61.28303997
 H     13  10   7     1.084842084407   107.95269213   181.15450905
 S      5   4   3     2.802492812283    99.80056925   217.91902901
 C     17   5   4     1.790565896693   115.90066137   229.99667169
 C     18  17   5     1.379582635582   111.79910502   345.92266247
 C     19  18  17     1.436448533746   112.77545124     0.73842715
 C     20  19  18     1.400305127463   111.74890212    12.76096652
 H     19  18  17     1.147919100634   116.05023974   182.51644345
 C     20  19  18     1.513001879840   117.59207907   174.95281663
 H     23  20  19     1.101031592826   110.94395472   190.22794145
 H     23  20  19     1.072215006843   108.11491985    76.30629629
 C     23  20  19     1.583091752363   120.56107936   314.36104116
 H     26  23  20     1.046883345746   109.50769857    66.29341038
 H     26  23  20     1.064431277678   108.51323013   315.37320279
 C     26  23  20     1.546250821212   112.45089259   188.56301036
 H     29  26  23     1.081026670578    97.71327496    73.63209257
 H     29  26  23     1.073396218784   121.03757980   305.74871912
 H     29  26  23     1.084444604210   101.14259031   182.23063755
 H      2   1   3     1.076977950378   126.44225648   167.68563418
 H     18  17   5     1.102832191081   123.43419060   171.27140142

---------------------------
INTERNAL COORDINATES (A.U.)
---------------------------
 S      0   0   0     0.000000000000     0.00000000     0.00000000
 C      1   0   0     3.361921962846     0.00000000     0.00000000
 C      2   1   0     2.596342375202   111.83975495     0.00000000
 C      3   2   1     2.758701018248   110.76754267     3.15517409
 C      4   3   2     2.636038521897   115.36467659   356.19491128
 H      4   3   2     1.995791275724   124.90156587   183.01770717
 C      3   2   1     2.819258804551   124.39119023   183.89405595
 H      7   3   2     2.122781702238   104.19656732   129.79980369
 H      7   3   2     2.057096900007   108.08098137    20.27720643
 C      7   3   2     2.754196911390   112.67281933   261.85830844
 H     10   7   3     2.131101767934   113.31705068   306.12184314
 H     10   7   3     2.006330313937   107.16082084    66.38128645
 C     10   7   3     2.910421579352   107.79264358   186.50883318
 H     13  10   7     2.109895074151   118.54240095   305.42497257
 H     13  10   7     1.961511283851   108.36610224    61.28303997
 H     13  10   7     2.050054438081   107.95269213   181.15450905
 S      5   4   3     5.295943907498    99.80056925   217.91902901
 C     17   5   4     3.383679169489   115.90066137   229.99667169
 C     18  17   5     2.607033360364   111.79910502   345.92266247
 C     19  18  17     2.714494334252   112.77545124     0.73842715
 C     20  19  18     2.646193194831   111.74890212    12.76096652
 H     19  18  17     2.169252724095   116.05023974   182.51644345
 C     20  19  18     2.859159193006   117.59207907   174.95281663
 H     23  20  19     2.080648175235   110.94395472   190.22794145
 H     23  20  19     2.026192719614   108.11491985    76.30629629
 C     23  20  19     2.991609856836   120.56107936   314.36104116
 H     26  23  20     1.978322817623   109.50769857    66.29341038
 H     26  23  20     2.011483603192   108.51323013   315.37320279
 C     26  23  20     2.921990586442   112.45089259   188.56301036
 H     29  26  23     2.042844350856    97.71327496    73.63209257
 H     29  26  23     2.028424886689   121.03757980   305.74871912
 H     29  26  23     2.049303309365   101.14259031   182.23063755
 H      2   1   3     2.035193378486   126.44225648   167.68563418
 H     18  17   5     2.084050812815   123.43419060   171.27140142

---------------------
BASIS SET INFORMATION
---------------------
There are 3 groups of distinct atoms

 Group   1 Type S   : 10s7p1d contracted to 4s3p1d pattern {5311/511/1}
 Group   2 Type C   : 7s4p1d contracted to 3s2p1d pattern {511/31/1}
 Group   3 Type H   : 4s1p contracted to 2s1p pattern {31/1}

Atom   0S    basis set group =>   1
Atom   1C    basis set group =>   2
Atom   2C    basis set group =>   2
Atom   3C    basis set group =>   2
Atom   4C    basis set group =>   2
Atom   5H    basis set group =>   3
Atom   6C    basis set group =>   2
Atom   7H    basis set group =>   3
Atom   8H    basis set group =>   3
Atom   9C    basis set group =>   2
Atom  10H    basis set group =>   3
Atom  11H    basis set group =>   3
Atom  12C    basis set group =>   2
Atom  13H    basis set group =>   3
Atom  14H    basis set group =>   3
Atom  15H    basis set group =>   3
Atom  16S    basis set group =>   1
Atom  17C    basis set group =>   2
Atom  18C    basis set group =>   2
Atom  19C    basis set group =>   2
Atom  20C    basis set group =>   2
Atom  21H    basis set group =>   3
Atom  22C    basis set group =>   2
Atom  23H    basis set group =>   3
Atom  24H    basis set group =>   3
Atom  25C    basis set group =>   2
Atom  26H    basis set group =>   3
Atom  27H    basis set group =>   3
Atom  28C    basis set group =>   2
Atom  29H    basis set group =>   3
Atom  30H    basis set group =>   3
Atom  31H    basis set group =>   3
Atom  32H    basis set group =>   3
Atom  33H    basis set group =>   3


           ************************************************************
           *        Program running with 24 parallel MPI-processes    *
           *              working on a common directory               *
           ************************************************************
------------------------------------------------------------------------------
                           ORCA GTO INTEGRAL CALCULATION
------------------------------------------------------------------------------

                         BASIS SET STATISTICS AND STARTUP INFO

 # of primitive gaussian shells          ...  294
 # of primitive gaussian functions       ...  534
 # of contracted shells                  ...  154
 # of contracted basis functions         ...  322
 Highest angular momentum                ...    2
 Maximum contraction depth               ...    5
 Integral package used                   ... LIBINT
 Integral threshhold            Thresh   ...  1.000e-10
 Primitive cut-off              TCut     ...  1.000e-11


------------------------------ INTEGRAL EVALUATION ----------------------------


 * One electron integrals 
 Pre-screening matrix                    ... done
 Shell pair data                         ... done (   0.003 sec)



           ************************************************************
           *        Program running with 24 parallel MPI-processes    *
           *              working on a common directory               *
           ************************************************************
-------------------------------------------------------------------------------
                                 ORCA SCF
-------------------------------------------------------------------------------

------------
SCF SETTINGS
------------
Hamiltonian:
 Density Functional     Method          .... DFT(GTOs)
 Exchange Functional    Exchange        .... WB97X-D3
 Correlation Functional Correlation     .... WB97X-D3
 Gradients option       PostSCFGGA      .... off
 Hybrid DFT is turned on
   Fraction HF Exchange ScalHFX         ....  0.195728
   Scaling of DF-GGA-X  ScalDFX         ....  0.000000
   Scaling of DF-GGA-C  ScalDFC         ....  1.000000
   Scaling of DF-LDA-C  ScalLDAC        ....  1.000000
   Perturbative correction              ....  0.000000
   Density functional embedding theory  .... OFF
 Long-range corrected/Screened/Range-Separated Hybrid DFT is turned on
   Amount of maximum screened exact exchange              ....  0.804272
   Range separation parameter mu (erf(mu*r12)/r12)        ....  0.250000


General Settings:
 Integral files         IntName         .... config_8848
 Hartree-Fock type      HFTyp           .... RHF
 Total Charge           Charge          ....    0
 Multiplicity           Mult            ....    1
 Number of Electrons    NEL             ....  134
 Basis Dimension        Dim             ....  322
 Nuclear Repulsion      ENuc            ....   1260.5779552491 Eh

Convergence Acceleration:
 DIIS                   CNVDIIS         .... on
   Start iteration      DIISMaxIt       ....    12
   Startup error        DIISStart       ....  0.200000
   # of expansion vecs  DIISMaxEq       ....     5
   Bias factor          DIISBfac        ....   1.050
   Max. coefficient     DIISMaxC        ....  10.000
 Newton-Raphson         CNVNR           .... off
 SOSCF                  CNVSOSCF        .... on
   Start iteration      SOSCFMaxIt      ....   150
   Startup grad/error   SOSCFStart      ....  0.003300
 Level Shifting         CNVShift        .... on
   Level shift para.    LevelShift      ....    0.2500
   Turn off err/grad.   ShiftErr        ....    0.0010
 Zerner damping         CNVZerner       .... off
 Static damping         CNVDamp         .... on
   Fraction old density DampFac         ....    0.7000
   Max. Damping (<1)    DampMax         ....    0.9800
   Min. Damping (>=0)   DampMin         ....    0.0000
   Turn off err/grad.   DampErr         ....    0.1000
 Fernandez-Rico         CNVRico         .... off

SCF Procedure:
 Maximum # iterations   MaxIter         ....   125
 SCF integral mode      SCFMode         .... Direct
   Integral package                     .... LIBINT
 Reset frequency        DirectResetFreq ....    20
 Integral Threshold     Thresh          ....  1.000e-10 Eh
 Primitive CutOff       TCut            ....  1.000e-11 Eh

Convergence Tolerance:
 Convergence Check Mode ConvCheckMode   .... Total+1el-Energy
 Convergence forced     ConvForced      .... 0
 Energy Change          TolE            ....  1.000e-06 Eh
 1-El. energy change                    ....  1.000e-03 Eh
 Orbital Gradient       TolG            ....  5.000e-05
 Orbital Rotation angle TolX            ....  5.000e-05
 DIIS Error             TolErr          ....  1.000e-06


Diagonalization of the overlap matrix:
Smallest eigenvalue                        ... 7.102e-04
Time for diagonalization                   ...    0.014 sec
Threshold for overlap eigenvalues          ... 1.000e-08
Number of eigenvalues below threshold      ... 0
Time for construction of square roots      ...    0.026 sec
Total time needed                          ...    0.041 sec

-------------------
DFT GRID GENERATION
-------------------

General Integration Accuracy     IntAcc      ...  4.340
Radial Grid Type                 RadialGrid  ... Gauss-Chebyshev
Angular Grid (max. acc.)         AngularGrid ... Lebedev-110
Angular grid pruning method      GridPruning ... 3 (G Style)
Weight generation scheme         WeightScheme... Becke
Basis function cutoff            BFCut       ...    1.0000e-10
Integration weight cutoff        WCut        ...    1.0000e-14
Grids for H and He will be reduced by one unit

# of grid points (after initial pruning)     ...  41088 (   0.0 sec)
# of grid points (after weights+screening)   ...  37132 (   0.0 sec)
nearest neighbour list constructed           ...    0.0 sec
Grid point re-assignment to atoms done       ...    0.0 sec
Grid point division into batches done        ...    0.0 sec
Reduced shell lists constructed in    0.1 sec

Total number of grid points                  ...    37132
Total number of batches                      ...      596
Average number of points per batch           ...       62
Average number of grid points per atom       ...     1092
Average number of shells per batch           ...    74.88 (48.63%)
Average number of basis functions per batch  ...   148.35 (46.07%)
Average number of large shells per batch     ...    47.46 (63.38%)
Average number of large basis fcns per batch ...    96.08 (64.77%)
Maximum spatial batch extension              ...  13.34, 16.15, 13.82 au
Average spatial batch extension              ...   0.15,  0.16,  0.16 au

Time for grid setup =    0.150 sec

------------------------------
INITIAL GUESS: MODEL POTENTIAL
------------------------------
Loading Hartree-Fock densities                     ... done
Calculating cut-offs                               ... done
Setting up the integral package                    ... done
Initializing the effective Hamiltonian             ... done
Starting the Coulomb interaction                   ... done (   0.0 sec)
Reading the grid                                   ... done
Mapping shells                                     ... done
Starting the XC term evaluation                    ... done (   0.0 sec)
  promolecular density results
     # of electrons  =    133.994108952
     EX              =   -126.711933789
     EC              =     -4.616329449
     EX+EC           =   -131.328263238
Transforming the Hamiltonian                       ... done (   0.0 sec)
Diagonalizing the Hamiltonian                      ... done (   0.0 sec)
Back transforming the eigenvectors                 ... done (   0.0 sec)
Now organizing SCF variables                       ... done
                      ------------------
                      INITIAL GUESS DONE (   0.3 sec)
                      ------------------
--------------
SCF ITERATIONS
--------------
ITER       Energy         Delta-E        Max-DP      RMS-DP      [F,P]     Damp
               ***  Starting incremental Fock matrix formation  ***
  0  -1339.4182455987   0.000000000000 0.06664885  0.00152618  0.1608655 0.7000
  1  -1339.5996551082  -0.181409509457 0.04478268  0.00112980  0.0974634 0.7000
                               ***Turning on DIIS***
  2  -1339.6898266590  -0.090171550839 0.08067251  0.00217443  0.0511870 0.0000
  3  -1339.8270081889  -0.137181529888 0.04335577  0.00089692  0.0360428 0.0000
  4  -1339.8548498032  -0.027841614272 0.00729073  0.00020582  0.0073504 0.0000
                      *** Initiating the SOSCF procedure ***
                           *** Shutting down DIIS ***
                      *** Re-Reading the Fockian *** 
                      *** Removing any level shift *** 
ITER      Energy       Delta-E        Grad      Rot      Max-DP    RMS-DP
  5  -1339.85578111  -0.0009313085  0.001781  0.001781  0.003532  0.000102
               *** Restarting incremental Fock matrix formation ***
  6  -1339.85597288  -0.0001917703  0.001539  0.004306  0.002130  0.000069
  7  -1339.85604249  -0.0000696115  0.000707  0.004979  0.002587  0.000072
  8  -1339.85606154  -0.0000190475  0.000466  0.000990  0.000857  0.000023
  9  -1339.85606736  -0.0000058196  0.000169  0.000479  0.000367  0.000010
 10  -1339.85606788  -0.0000005234  0.000060  0.000228  0.000185  0.000004
 11  -1339.85606815  -0.0000002687  0.000013  0.000051  0.000035  0.000001
                 **** Energy Check signals convergence ****
              ***Rediagonalizing the Fockian in SOSCF/NRSCF***

               *****************************************************
               *                     SUCCESS                       *
               *           SCF CONVERGED AFTER  12 CYCLES          *
               *****************************************************

Setting up the final grid:

General Integration Accuracy     IntAcc      ...  4.670
Radial Grid Type                 RadialGrid  ... Gauss-Chebyshev
Angular Grid (max. acc.)         AngularGrid ... Lebedev-302
Angular grid pruning method      GridPruning ... 3 (G Style)
Weight generation scheme         WeightScheme... Becke
Basis function cutoff            BFCut       ...    1.0000e-10
Integration weight cutoff        WCut        ...    1.0000e-14
Grids for H and He will be reduced by one unit

# of grid points (after initial pruning)     ... 161752 (   0.0 sec)
# of grid points (after weights+screening)   ... 143543 (   0.1 sec)
nearest neighbour list constructed           ...    0.0 sec
Grid point re-assignment to atoms done       ...    0.0 sec
Grid point division into batches done        ...    0.5 sec
Reduced shell lists constructed in    0.5 sec

Total number of grid points                  ...   143543
Total number of batches                      ...     2264
Average number of points per batch           ...       63
Average number of grid points per atom       ...     4222
Average number of shells per batch           ...    69.05 (44.84%)
Average number of basis functions per batch  ...   135.11 (41.96%)
Average number of large shells per batch     ...    42.57 (61.65%)
Average number of large basis fcns per batch ...    85.74 (63.46%)
Maximum spatial batch extension              ...  14.73, 14.10, 11.61 au
Average spatial batch extension              ...   0.10,  0.11,  0.10 au

Final grid set up in    0.9 sec
Final integration                            ... done (   0.2 sec)
Change in XC energy                          ...     0.007033889
Integrated number of electrons               ...   133.999841245
Previous integrated no of electrons          ...   133.999429618

----------------
TOTAL SCF ENERGY
----------------

Total Energy       :        -1339.84903426 Eh          -36459.14577 eV

Components:
Nuclear Repulsion  :         1260.57795525 Eh           34302.07005 eV
Electronic Energy  :        -2600.42698951 Eh          -70761.21582 eV
One Electron Energy:        -4337.87105303 Eh         -118039.47236 eV
Two Electron Energy:         1737.44406353 Eh           47278.25655 eV

Virial components:
Potential Energy   :        -2671.35882927 Eh          -72691.36930 eV
Kinetic Energy     :         1331.50979501 Eh           36232.22353 eV
Virial Ratio       :            2.00626300


DFT components:
N(Alpha)           :       66.999920622607 electrons
N(Beta)            :       66.999920622607 electrons
N(Total)           :      133.999841245214 electrons
E(XC)              :      -94.251801812779 Eh       
DFET-embed. en.    :        0.000000000000 Eh       

---------------
SCF CONVERGENCE
---------------

  Last Energy change         ...    5.4065e-09  Tolerance :   1.0000e-06
  Last MAX-Density change    ...    1.6196e-05  Tolerance :   1.0000e-05
  Last RMS-Density change    ...    4.3678e-07  Tolerance :   1.0000e-06
  Last Orbital Gradient      ...    1.0261e-05  Tolerance :   5.0000e-05
  Last Orbital Rotation      ...    2.2618e-05  Tolerance :   5.0000e-05

             **** THE GBW FILE WAS UPDATED (config_8848.gbw) ****
             **** DENSITY FILE WAS UPDATED (config_8848.scfp) ****
             **** ENERGY FILE WAS UPDATED (config_8848.en.tmp) ****
             **** THE GBW FILE WAS UPDATED (config_8848.gbw) ****
             **** DENSITY FILE WAS UPDATED (config_8848.scfp) ****
----------------
ORBITAL ENERGIES
----------------

  NO   OCC          E(Eh)            E(eV) 
   0   2.0000     -88.966650     -2420.9056 
   1   2.0000     -88.965003     -2420.8608 
   2   2.0000     -10.331262      -281.1279 
   3   2.0000     -10.329510      -281.0802 
   4   2.0000     -10.321612      -280.8653 
   5   2.0000     -10.312311      -280.6122 
   6   2.0000     -10.306895      -280.4649 
   7   2.0000     -10.301350      -280.3140 
   8   2.0000     -10.298949      -280.2486 
   9   2.0000     -10.291983      -280.0591 
  10   2.0000     -10.288445      -279.9628 
  11   2.0000     -10.287411      -279.9347 
  12   2.0000     -10.285039      -279.8701 
  13   2.0000     -10.280856      -279.7563 
  14   2.0000     -10.276349      -279.6337 
  15   2.0000     -10.273861      -279.5660 
  16   2.0000      -8.080258      -219.8750 
  17   2.0000      -8.078980      -219.8402 
  18   2.0000      -6.038847      -164.3254 
  19   2.0000      -6.037692      -164.2939 
  20   2.0000      -6.035102      -164.2235 
  21   2.0000      -6.033487      -164.1795 
  22   2.0000      -6.030812      -164.1067 
  23   2.0000      -6.029662      -164.0754 
  24   2.0000      -1.000005       -27.2115 
  25   2.0000      -0.978095       -26.6153 
  26   2.0000      -0.925367       -25.1805 
  27   2.0000      -0.902824       -24.5671 
  28   2.0000      -0.868672       -23.6378 
  29   2.0000      -0.850978       -23.1563 
  30   2.0000      -0.842982       -22.9387 
  31   2.0000      -0.811309       -22.0769 
  32   2.0000      -0.781902       -21.2766 
  33   2.0000      -0.769280       -20.9332 
  34   2.0000      -0.707529       -19.2528 
  35   2.0000      -0.704410       -19.1680 
  36   2.0000      -0.696172       -18.9438 
  37   2.0000      -0.656351       -17.8602 
  38   2.0000      -0.634252       -17.2589 
  39   2.0000      -0.615923       -16.7601 
  40   2.0000      -0.594728       -16.1834 
  41   2.0000      -0.572423       -15.5764 
  42   2.0000      -0.566507       -15.4154 
  43   2.0000      -0.562877       -15.3167 
  44   2.0000      -0.535057       -14.5596 
  45   2.0000      -0.523669       -14.2498 
  46   2.0000      -0.517344       -14.0777 
  47   2.0000      -0.510251       -13.8846 
  48   2.0000      -0.507201       -13.8017 
  49   2.0000      -0.499004       -13.5786 
  50   2.0000      -0.489158       -13.3107 
  51   2.0000      -0.472514       -12.8578 
  52   2.0000      -0.468311       -12.7434 
  53   2.0000      -0.460163       -12.5217 
  54   2.0000      -0.456352       -12.4180 
  55   2.0000      -0.450348       -12.2546 
  56   2.0000      -0.446436       -12.1481 
  57   2.0000      -0.442735       -12.0474 
  58   2.0000      -0.428030       -11.6473 
  59   2.0000      -0.424967       -11.5639 
  60   2.0000      -0.422030       -11.4840 
  61   2.0000      -0.415642       -11.3102 
  62   2.0000      -0.408995       -11.1293 
  63   2.0000      -0.341032        -9.2799 
  64   2.0000      -0.331586        -9.0229 
  65   2.0000      -0.325847        -8.8667 
  66   2.0000      -0.293654        -7.9907 
  67   0.0000       0.026024         0.7082 
  68   0.0000       0.071878         1.9559 
  69   0.0000       0.102723         2.7952 
  70   0.0000       0.119043         3.2393 
  71   0.0000       0.125239         3.4079 
  72   0.0000       0.141009         3.8371 
  73   0.0000       0.148821         4.0496 
  74   0.0000       0.153281         4.1710 
  75   0.0000       0.160715         4.3733 
  76   0.0000       0.168766         4.5924 
  77   0.0000       0.182814         4.9746 
  78   0.0000       0.187453         5.1008 
  79   0.0000       0.196244         5.3401 
  80   0.0000       0.200432         5.4540 
  81   0.0000       0.205344         5.5877 
  82   0.0000       0.210486         5.7276 
  83   0.0000       0.217404         5.9159 
  84   0.0000       0.223696         6.0871 
  85   0.0000       0.229887         6.2555 
  86   0.0000       0.236180         6.4268 
  87   0.0000       0.239206         6.5091 
  88   0.0000       0.246756         6.7146 
  89   0.0000       0.251120         6.8333 
  90   0.0000       0.254951         6.9376 
  91   0.0000       0.259666         7.0659 
  92   0.0000       0.264292         7.1918 
  93   0.0000       0.299586         8.1521 
  94   0.0000       0.310277         8.4431 
  95   0.0000       0.315518         8.5857 
  96   0.0000       0.326248         8.8777 
  97   0.0000       0.336460         9.1555 
  98   0.0000       0.343712         9.3529 
  99   0.0000       0.352532         9.5929 
 100   0.0000       0.386630        10.5207 
 101   0.0000       0.399206        10.8630 
 102   0.0000       0.411416        11.1952 
 103   0.0000       0.416693        11.3388 
 104   0.0000       0.436045        11.8654 
 105   0.0000       0.446688        12.1550 
 106   0.0000       0.467239        12.7142 
 107   0.0000       0.475866        12.9490 
 108   0.0000       0.493414        13.4265 
 109   0.0000       0.500126        13.6091 
 110   0.0000       0.504102        13.7173 
 111   0.0000       0.506565        13.7843 
 112   0.0000       0.516300        14.0492 
 113   0.0000       0.526509        14.3270 
 114   0.0000       0.528871        14.3913 
 115   0.0000       0.533748        14.5240 
 116   0.0000       0.547103        14.8874 
 117   0.0000       0.552330        15.0297 
 118   0.0000       0.555179        15.1072 
 119   0.0000       0.571311        15.5462 
 120   0.0000       0.580669        15.8008 
 121   0.0000       0.590799        16.0765 
 122   0.0000       0.595108        16.1937 
 123   0.0000       0.606723        16.5098 
 124   0.0000       0.618368        16.8266 
 125   0.0000       0.624687        16.9986 
 126   0.0000       0.632518        17.2117 
 127   0.0000       0.646155        17.5828 
 128   0.0000       0.659709        17.9516 
 129   0.0000       0.662904        18.0385 
 130   0.0000       0.668135        18.1809 
 131   0.0000       0.679074        18.4785 
 132   0.0000       0.684229        18.6188 
 133   0.0000       0.695826        18.9344 
 134   0.0000       0.701832        19.0978 
 135   0.0000       0.712032        19.3754 
 136   0.0000       0.720942        19.6178 
 137   0.0000       0.726795        19.7771 
 138   0.0000       0.729511        19.8510 
 139   0.0000       0.739182        20.1142 
 140   0.0000       0.743237        20.2245 
 141   0.0000       0.750554        20.4236 
 142   0.0000       0.754460        20.5299 
 143   0.0000       0.758641        20.6437 
 144   0.0000       0.764120        20.7928 
 145   0.0000       0.770039        20.9538 
 146   0.0000       0.772524        21.0215 
 147   0.0000       0.775405        21.0998 
 148   0.0000       0.785328        21.3699 
 149   0.0000       0.787681        21.4339 
 150   0.0000       0.789692        21.4886 
 151   0.0000       0.794423        21.6173 
 152   0.0000       0.798963        21.7409 
 153   0.0000       0.800417        21.7805 
 154   0.0000       0.804920        21.9030 
 155   0.0000       0.807981        21.9863 
 156   0.0000       0.810753        22.0617 
 157   0.0000       0.814511        22.1640 
 158   0.0000       0.821501        22.3542 
 159   0.0000       0.826149        22.4807 
 160   0.0000       0.830649        22.6031 
 161   0.0000       0.839249        22.8371 
 162   0.0000       0.846946        23.0466 
 163   0.0000       0.847176        23.0528 
 164   0.0000       0.850553        23.1447 
 165   0.0000       0.854687        23.2572 
 166   0.0000       0.867791        23.6138 
 167   0.0000       0.869581        23.6625 
 168   0.0000       0.880168        23.9506 
 169   0.0000       0.884140        24.0587 
 170   0.0000       0.907255        24.6877 
 171   0.0000       0.924652        25.1611 
 172   0.0000       0.933730        25.4081 
 173   0.0000       0.943729        25.6802 
 174   0.0000       0.951677        25.8965 
 175   0.0000       0.958477        26.0815 
 176   0.0000       0.966384        26.2966 
 177   0.0000       0.999791        27.2057 
 178   0.0000       1.013415        27.5764 
 179   0.0000       1.045778        28.4571 
 180   0.0000       1.059261        28.8240 
 181   0.0000       1.092077        29.7169 
 182   0.0000       1.105479        30.0816 
 183   0.0000       1.111743        30.2521 
 184   0.0000       1.113913        30.3111 
 185   0.0000       1.130907        30.7736 
 186   0.0000       1.149259        31.2729 
 187   0.0000       1.153638        31.3921 
 188   0.0000       1.165293        31.7092 
 189   0.0000       1.178995        32.0821 
 190   0.0000       1.187355        32.3096 
 191   0.0000       1.216694        33.1079 
 192   0.0000       1.240270        33.7495 
 193   0.0000       1.263691        34.3868 
 194   0.0000       1.276410        34.7329 
 195   0.0000       1.307859        35.5887 
 196   0.0000       1.317034        35.8383 
 197   0.0000       1.328346        36.1461 
 198   0.0000       1.352115        36.7929 
 199   0.0000       1.369417        37.2637 
 200   0.0000       1.374939        37.4140 
 201   0.0000       1.408818        38.3359 
 202   0.0000       1.438006        39.1301 
 203   0.0000       1.444190        39.2984 
 204   0.0000       1.453637        39.5555 
 205   0.0000       1.463806        39.8322 
 206   0.0000       1.482488        40.3405 
 207   0.0000       1.488423        40.5020 
 208   0.0000       1.520239        41.3678 
 209   0.0000       1.545131        42.0452 
 210   0.0000       1.585130        43.1336 
 211   0.0000       1.608186        43.7610 
 212   0.0000       1.621576        44.1253 
 213   0.0000       1.625275        44.2260 
 214   0.0000       1.628218        44.3061 
 215   0.0000       1.655839        45.0577 
 216   0.0000       1.675470        45.5918 
 217   0.0000       1.697576        46.1934 
 218   0.0000       1.752776        47.6955 
 219   0.0000       1.785802        48.5941 
 220   0.0000       1.790149        48.7124 
 221   0.0000       1.791418        48.7469 
 222   0.0000       1.808600        49.2145 
 223   0.0000       1.814378        49.3717 
 224   0.0000       1.826759        49.7086 
 225   0.0000       1.829780        49.7908 
 226   0.0000       1.837281        49.9950 
 227   0.0000       1.844236        50.1842 
 228   0.0000       1.851883        50.3923 
 229   0.0000       1.860776        50.6343 
 230   0.0000       1.875135        51.0250 
 231   0.0000       1.880130        51.1609 
 232   0.0000       1.890587        51.4455 
 233   0.0000       1.892826        51.5064 
 234   0.0000       1.899748        51.6948 
 235   0.0000       1.913244        52.0620 
 236   0.0000       1.915917        52.1348 
 237   0.0000       1.926821        52.4315 
 238   0.0000       1.936584        52.6971 
 239   0.0000       1.941919        52.8423 
 240   0.0000       1.950844        53.0852 
 241   0.0000       1.955084        53.2005 
 242   0.0000       1.960465        53.3470 
 243   0.0000       1.986800        54.0636 
 244   0.0000       1.989420        54.1349 
 245   0.0000       2.000962        54.4489 
 246   0.0000       2.012214        54.7551 
 247   0.0000       2.014854        54.8270 
 248   0.0000       2.028134        55.1883 
 249   0.0000       2.042470        55.5784 
 250   0.0000       2.049370        55.7662 
 251   0.0000       2.061422        56.0941 
 252   0.0000       2.065496        56.2050 
 253   0.0000       2.080389        56.6103 
 254   0.0000       2.094922        57.0057 
 255   0.0000       2.096492        57.0485 
 256   0.0000       2.112229        57.4767 
 257   0.0000       2.121443        57.7274 
 258   0.0000       2.137568        58.1662 
 259   0.0000       2.151489        58.5450 
 260   0.0000       2.174817        59.1798 
 261   0.0000       2.193412        59.6858 
 262   0.0000       2.206385        60.0388 
 263   0.0000       2.214830        60.2686 
 264   0.0000       2.228510        60.6409 
 265   0.0000       2.232568        60.7513 
 266   0.0000       2.250415        61.2369 
 267   0.0000       2.275277        61.9134 
 268   0.0000       2.281667        62.0873 
 269   0.0000       2.289150        62.2909 
 270   0.0000       2.329148        63.3793 
 271   0.0000       2.341273        63.7093 
 272   0.0000       2.379966        64.7622 
 273   0.0000       2.404659        65.4341 
 274   0.0000       2.413607        65.6776 
 275   0.0000       2.428744        66.0895 
 276   0.0000       2.437214        66.3200 
 277   0.0000       2.457021        66.8589 
 278   0.0000       2.467767        67.1514 
 279   0.0000       2.491972        67.8100 
 280   0.0000       2.506102        68.1945 
 281   0.0000       2.511114        68.3309 
 282   0.0000       2.523786        68.6757 
 283   0.0000       2.527059        68.7648 
 284   0.0000       2.546541        69.2949 
 285   0.0000       2.569535        69.9206 
 286   0.0000       2.575654        70.0871 
 287   0.0000       2.586102        70.3714 
 288   0.0000       2.595725        70.6333 
 289   0.0000       2.626822        71.4795 
 290   0.0000       2.636631        71.7464 
 291   0.0000       2.655803        72.2681 
 292   0.0000       2.669667        72.6453 
 293   0.0000       2.702270        73.5325 
 294   0.0000       2.727348        74.2149 
 295   0.0000       2.730724        74.3068 
 296   0.0000       2.739660        74.5499 
 297   0.0000       2.778369        75.6033 
 298   0.0000       2.790983        75.9465 
 299   0.0000       2.807719        76.4019 
 300   0.0000       2.832377        77.0729 
 301   0.0000       2.877970        78.3135 
 302   0.0000       2.918246        79.4095 
 303   0.0000       2.933831        79.8336 
 304   0.0000       2.970482        80.8309 
 305   0.0000       2.978804        81.0574 
 306   0.0000       2.997149        81.5566 
 307   0.0000       3.022537        82.2474 
 308   0.0000       3.029706        82.4425 
 309   0.0000       3.072348        83.6028 
 310   0.0000       3.075690        83.6938 
 311   0.0000       3.083160        83.8971 
 312   0.0000       3.097211        84.2794 
 313   0.0000       3.121024        84.9274 
 314   0.0000       3.147571        85.6498 
 315   0.0000       3.163864        86.0931 
 316   0.0000       3.177342        86.4599 
 317   0.0000       3.219876        87.6173 
 318   0.0000       3.242053        88.2208 
 319   0.0000       3.279310        89.2346 
 320   0.0000       3.346645        91.0668 
 321   0.0000       3.398216        92.4702 

                    ********************************
                    * MULLIKEN POPULATION ANALYSIS *
                    ********************************

-----------------------
MULLIKEN ATOMIC CHARGES
-----------------------
   0 S :    0.109715
   1 C :   -0.116114
   2 C :   -0.100880
   3 C :    0.022151
   4 C :   -0.134572
   5 H :   -0.004814
   6 C :    0.046459
   7 H :    0.039861
   8 H :    0.011737
   9 C :   -0.053847
  10 H :    0.040342
  11 H :    0.019447
  12 C :   -0.015462
  13 H :    0.028391
  14 H :    0.010714
  15 H :    0.033804
  16 S :    0.106470
  17 C :   -0.112195
  18 C :   -0.063753
  19 C :   -0.000470
  20 C :   -0.152040
  21 H :    0.056472
  22 C :    0.041016
  23 H :    0.012936
  24 H :    0.024149
  25 C :   -0.066907
  26 H :    0.003469
  27 H :    0.025949
  28 C :   -0.037356
  29 H :    0.037319
  30 H :    0.048163
  31 H :    0.031036
  32 H :    0.043962
  33 H :    0.064848
Sum of atomic charges:    0.0000000

--------------------------------
MULLIKEN REDUCED ORBITAL CHARGES
--------------------------------
  0 S s       :     5.842772  s :     5.842772
      pz      :     3.290672  p :     9.943036
      px      :     3.179521
      py      :     3.472843
      dz2     :     0.027167  d :     0.104476
      dxz     :     0.018081
      dyz     :     0.018069
      dx2y2   :     0.012824
      dxy     :     0.028335
  1 C s       :     3.176051  s :     3.176051
      pz      :     1.055503  p :     2.906501
      px      :     0.895284
      py      :     0.955714
      dz2     :     0.007315  d :     0.033562
      dxz     :     0.007005
      dyz     :     0.004789
      dx2y2   :     0.006773
      dxy     :     0.007681
  2 C s       :     3.085339  s :     3.085339
      pz      :     0.987127  p :     2.971283
      px      :     1.003455
      py      :     0.980701
      dz2     :     0.009420  d :     0.044258
      dxz     :     0.008513
      dyz     :     0.008941
      dx2y2   :     0.009464
      dxy     :     0.007921
  3 C s       :     3.215331  s :     3.215331
      pz      :     0.887823  p :     2.729793
      px      :     0.920643
      py      :     0.921327
      dz2     :     0.005373  d :     0.032724
      dxz     :     0.007526
      dyz     :     0.006225
      dx2y2   :     0.007121
      dxy     :     0.006479
  4 C s       :     3.061272  s :     3.061272
      pz      :     0.946823  p :     3.028942
      px      :     1.031632
      py      :     1.050487
      dz2     :     0.010788  d :     0.044359
      dxz     :     0.010919
      dyz     :     0.006032
      dx2y2   :     0.008724
      dxy     :     0.007895
  5 H s       :     0.979729  s :     0.979729
      pz      :     0.012252  p :     0.025085
      px      :     0.005379
      py      :     0.007454
  6 C s       :     2.951356  s :     2.951356
      pz      :     1.006151  p :     2.962747
      px      :     0.952612
      py      :     1.003984
      dz2     :     0.008345  d :     0.039438
      dxz     :     0.009063
      dyz     :     0.004588
      dx2y2   :     0.005156
      dxy     :     0.012287
  7 H s       :     0.938098  s :     0.938098
      pz      :     0.004225  p :     0.022041
      px      :     0.007580
      py      :     0.010236
  8 H s       :     0.964991  s :     0.964991
      pz      :     0.011785  p :     0.023272
      px      :     0.006431
      py      :     0.005056
  9 C s       :     3.040233  s :     3.040233
      pz      :     0.982702  p :     2.974418
      px      :     0.982709
      py      :     1.009007
      dz2     :     0.007171  d :     0.039197
      dxz     :     0.009129
      dyz     :     0.007721
      dx2y2   :     0.005193
      dxy     :     0.009983
 10 H s       :     0.938551  s :     0.938551
      pz      :     0.011193  p :     0.021108
      px      :     0.005022
      py      :     0.004893
 11 H s       :     0.956730  s :     0.956730
      pz      :     0.006410  p :     0.023823
      px      :     0.008069
      py      :     0.009343
 12 C s       :     2.979356  s :     2.979356
      pz      :     1.030192  p :     3.007112
      px      :     1.006698
      py      :     0.970223
      dz2     :     0.002433  d :     0.028993
      dxz     :     0.007758
      dyz     :     0.006524
      dx2y2   :     0.003635
      dxy     :     0.008642
 13 H s       :     0.948783  s :     0.948783
      pz      :     0.009619  p :     0.022826
      px      :     0.006749
      py      :     0.006458
 14 H s       :     0.962734  s :     0.962734
      pz      :     0.007744  p :     0.026552
      px      :     0.009173
      py      :     0.009635
 15 H s       :     0.942522  s :     0.942522
      pz      :     0.008849  p :     0.023675
      px      :     0.009656
      py      :     0.005170
 16 S s       :     5.851872  s :     5.851872
      pz      :     3.551880  p :     9.943083
      px      :     3.059975
      py      :     3.331228
      dz2     :     0.015342  d :     0.098575
      dxz     :     0.016867
      dyz     :     0.015623
      dx2y2   :     0.012205
      dxy     :     0.038538
 17 C s       :     3.177166  s :     3.177166
      pz      :     1.014631  p :     2.901304
      px      :     0.946200
      py      :     0.940473
      dz2     :     0.003206  d :     0.033725
      dxz     :     0.003669
      dyz     :     0.008585
      dx2y2   :     0.007434
      dxy     :     0.010831
 18 C s       :     3.189745  s :     3.189745
      pz      :     0.978621  p :     2.839790
      px      :     0.953393
      py      :     0.907776
      dz2     :     0.004129  d :     0.034218
      dxz     :     0.005236
      dyz     :     0.006455
      dx2y2   :     0.009172
      dxy     :     0.009225
 19 C s       :     3.072922  s :     3.072922
      pz      :     0.971501  p :     2.884751
      px      :     0.973479
      py      :     0.939771
      dz2     :     0.005305  d :     0.042797
      dxz     :     0.006344
      dyz     :     0.008197
      dx2y2   :     0.012100
      dxy     :     0.010851
 20 C s       :     3.058622  s :     3.058622
      pz      :     1.120895  p :     3.050118
      px      :     0.973887
      py      :     0.955336
      dz2     :     0.003928  d :     0.043300
      dxz     :     0.005919
      dyz     :     0.007708
      dx2y2   :     0.010167
      dxy     :     0.015579
 21 H s       :     0.922346  s :     0.922346
      pz      :     0.005818  p :     0.021182
      px      :     0.006992
      py      :     0.008372
 22 C s       :     2.970385  s :     2.970385
      pz      :     1.011605  p :     2.954254
      px      :     0.995616
      py      :     0.947033
      dz2     :     0.005156  d :     0.034344
      dxz     :     0.006988
      dyz     :     0.008874
      dx2y2   :     0.006956
      dxy     :     0.006370
 23 H s       :     0.963974  s :     0.963974
      pz      :     0.005839  p :     0.023090
      px      :     0.013404
      py      :     0.003847
 24 H s       :     0.951466  s :     0.951466
      pz      :     0.009118  p :     0.024385
      px      :     0.007841
      py      :     0.007426
 25 C s       :     3.032321  s :     3.032321
      pz      :     0.993091  p :     2.997187
      px      :     1.027474
      py      :     0.976623
      dz2     :     0.005886  d :     0.037399
      dxz     :     0.006226
      dyz     :     0.010537
      dx2y2   :     0.008220
      dxy     :     0.006530
 26 H s       :     0.971661  s :     0.971661
      pz      :     0.005862  p :     0.024869
      px      :     0.013344
      py      :     0.005663
 27 H s       :     0.950509  s :     0.950509
      pz      :     0.009700  p :     0.023542
      px      :     0.006117
      py      :     0.007724
 28 C s       :     3.015807  s :     3.015807
      pz      :     1.007840  p :     2.993646
      px      :     1.023439
      py      :     0.962367
      dz2     :     0.006283  d :     0.027902
      dxz     :     0.001195
      dyz     :     0.008360
      dx2y2   :     0.005261
      dxy     :     0.006804
 29 H s       :     0.937255  s :     0.937255
      pz      :     0.005065  p :     0.025426
      px      :     0.012778
      py      :     0.007583
 30 H s       :     0.927668  s :     0.927668
      pz      :     0.010700  p :     0.024169
      px      :     0.004811
      py      :     0.008658
 31 H s       :     0.944250  s :     0.944250
      pz      :     0.012299  p :     0.024714
      px      :     0.005536
      py      :     0.006879
 32 H s       :     0.931779  s :     0.931779
      pz      :     0.008084  p :     0.024259
      px      :     0.012287
      py      :     0.003888
 33 H s       :     0.912171  s :     0.912171
      pz      :     0.006436  p :     0.022981
      px      :     0.012833
      py      :     0.003712


                     *******************************
                     * LOEWDIN POPULATION ANALYSIS *
                     *******************************

----------------------
LOEWDIN ATOMIC CHARGES
----------------------
   0 S :    0.396091
   1 C :   -0.192509
   2 C :   -0.058049
   3 C :   -0.059729
   4 C :   -0.196831
   5 H :    0.020086
   6 C :   -0.039349
   7 H :    0.038298
   8 H :    0.031037
   9 C :   -0.035542
  10 H :    0.032521
  11 H :    0.021994
  12 C :   -0.061202
  13 H :    0.028884
  14 H :    0.015186
  15 H :    0.025179
  16 S :    0.378970
  17 C :   -0.177118
  18 C :   -0.078263
  19 C :   -0.054268
  20 C :   -0.186038
  21 H :    0.049346
  22 C :   -0.037834
  23 H :    0.021441
  24 H :    0.029516
  25 C :   -0.029006
  26 H :    0.006450
  27 H :    0.022384
  28 C :   -0.059123
  29 H :    0.030609
  30 H :    0.026009
  31 H :    0.030558
  32 H :    0.027269
  33 H :    0.033033

-------------------------------
LOEWDIN REDUCED ORBITAL CHARGES
-------------------------------
  0 S s       :     5.513649  s :     5.513649
      pz      :     3.311129  p :     9.961141
      px      :     3.177046
      py      :     3.472966
      dz2     :     0.034165  d :     0.129120
      dxz     :     0.023544
      dyz     :     0.020928
      dx2y2   :     0.014651
      dxy     :     0.035832
  1 C s       :     2.932671  s :     2.932671
      pz      :     1.106662  p :     3.179963
      px      :     1.033535
      py      :     1.039766
      dz2     :     0.016203  d :     0.079875
      dxz     :     0.016590
      dyz     :     0.013220
      dx2y2   :     0.016113
      dxy     :     0.017748
  2 C s       :     2.863858  s :     2.863858
      pz      :     1.038944  p :     3.085278
      px      :     1.020097
      py      :     1.026236
      dz2     :     0.022503  d :     0.108914
      dxz     :     0.021415
      dyz     :     0.024497
      dx2y2   :     0.021309
      dxy     :     0.019190
  3 C s       :     2.869402  s :     2.869402
      pz      :     1.042870  p :     3.103425
      px      :     1.025638
      py      :     1.034917
      dz2     :     0.013245  d :     0.086902
      dxz     :     0.020295
      dyz     :     0.017356
      dx2y2   :     0.017765
      dxy     :     0.018242
  4 C s       :     2.910227  s :     2.910227
      pz      :     1.028181  p :     3.181615
      px      :     1.068160
      py      :     1.085274
      dz2     :     0.024266  d :     0.104989
      dxz     :     0.025640
      dyz     :     0.014183
      dx2y2   :     0.020478
      dxy     :     0.020422
  5 H s       :     0.903800  s :     0.903800
      pz      :     0.035719  p :     0.076114
      px      :     0.017754
      py      :     0.022641
  6 C s       :     2.815883  s :     2.815883
      pz      :     1.060339  p :     3.123132
      px      :     1.031814
      py      :     1.030978
      dz2     :     0.020269  d :     0.100334
      dxz     :     0.024634
      dyz     :     0.010922
      dx2y2   :     0.011796
      dxy     :     0.032713
  7 H s       :     0.899386  s :     0.899386
      pz      :     0.012280  p :     0.062315
      px      :     0.021279
      py      :     0.028756
  8 H s       :     0.901723  s :     0.901723
      pz      :     0.033192  p :     0.067240
      px      :     0.019051
      py      :     0.014997
  9 C s       :     2.822203  s :     2.822203
      pz      :     1.040487  p :     3.117060
      px      :     1.038106
      py      :     1.038466
      dz2     :     0.016876  d :     0.096279
      dxz     :     0.024105
      dyz     :     0.018315
      dx2y2   :     0.011222
      dxy     :     0.025761
 10 H s       :     0.907649  s :     0.907649
      pz      :     0.030552  p :     0.059830
      px      :     0.014885
      py      :     0.014393
 11 H s       :     0.906104  s :     0.906104
      pz      :     0.019217  p :     0.071902
      px      :     0.024447
      py      :     0.028239
 12 C s       :     2.825396  s :     2.825396
      pz      :     1.071902  p :     3.162654
      px      :     1.058926
      py      :     1.031826
      dz2     :     0.006246  d :     0.073152
      dxz     :     0.019764
      dyz     :     0.015808
      dx2y2   :     0.008299
      dxy     :     0.023034
 13 H s       :     0.908891  s :     0.908891
      pz      :     0.026518  p :     0.062225
      px      :     0.016747
      py      :     0.018960
 14 H s       :     0.908050  s :     0.908050
      pz      :     0.021306  p :     0.076764
      px      :     0.026553
      py      :     0.028905
 15 H s       :     0.907361  s :     0.907361
      pz      :     0.025480  p :     0.067460
      px      :     0.026793
      py      :     0.015187
 16 S s       :     5.538875  s :     5.538875
      pz      :     3.524021  p :     9.961615
      px      :     3.069395
      py      :     3.368200
      dz2     :     0.018150  d :     0.120539
      dxz     :     0.021549
      dyz     :     0.017696
      dx2y2   :     0.013550
      dxy     :     0.049593
 17 C s       :     2.948201  s :     2.948201
      pz      :     1.046566  p :     3.150823
      px      :     1.044316
      py      :     1.059942
      dz2     :     0.006780  d :     0.078094
      dxz     :     0.007103
      dyz     :     0.018066
      dx2y2   :     0.019829
      dxy     :     0.026315
 18 C s       :     2.885279  s :     2.885279
      pz      :     1.011978  p :     3.105191
      px      :     1.032159
      py      :     1.061054
      dz2     :     0.009550  d :     0.087793
      dxz     :     0.012415
      dyz     :     0.014441
      dx2y2   :     0.026635
      dxy     :     0.024752
 19 C s       :     2.865700  s :     2.865700
      pz      :     0.996637  p :     3.081653
      px      :     1.031998
      py      :     1.053017
      dz2     :     0.011719  d :     0.106915
      dxz     :     0.015714
      dyz     :     0.016429
      dx2y2   :     0.033127
      dxy     :     0.029926
 20 C s       :     2.912808  s :     2.912808
      pz      :     1.097478  p :     3.169916
      px      :     1.028803
      py      :     1.043635
      dz2     :     0.008424  d :     0.103314
      dxz     :     0.012968
      dyz     :     0.015871
      dx2y2   :     0.027129
      dxy     :     0.038921
 21 H s       :     0.890194  s :     0.890194
      pz      :     0.016418  p :     0.060459
      px      :     0.020744
      py      :     0.023297
 22 C s       :     2.830690  s :     2.830690
      pz      :     1.046603  p :     3.121585
      px      :     1.061059
      py      :     1.013923
      dz2     :     0.012592  d :     0.085560
      dxz     :     0.015944
      dyz     :     0.022378
      dx2y2   :     0.018387
      dxy     :     0.016259
 23 H s       :     0.911420  s :     0.911420
      pz      :     0.018117  p :     0.067139
      px      :     0.036792
      py      :     0.012231
 24 H s       :     0.898467  s :     0.898467
      pz      :     0.027825  p :     0.072017
      px      :     0.021490
      py      :     0.022702
 25 C s       :     2.825811  s :     2.825811
      pz      :     1.026944  p :     3.114747
      px      :     1.068995
      py      :     1.018808
      dz2     :     0.014331  d :     0.088448
      dxz     :     0.013064
      dyz     :     0.026329
      dx2y2   :     0.017938
      dxy     :     0.016786
 26 H s       :     0.917251  s :     0.917251
      pz      :     0.019433  p :     0.076298
      px      :     0.038469
      py      :     0.018397
 27 H s       :     0.905401  s :     0.905401
      pz      :     0.030589  p :     0.072215
      px      :     0.017893
      py      :     0.023732
 28 C s       :     2.827690  s :     2.827690
      pz      :     1.067712  p :     3.160741
      px      :     1.064722
      py      :     1.028307
      dz2     :     0.016153  d :     0.070692
      dxz     :     0.002703
      dyz     :     0.021356
      dx2y2   :     0.011768
      dxy     :     0.018712
 29 H s       :     0.898661  s :     0.898661
      pz      :     0.012837  p :     0.070730
      px      :     0.036601
      py      :     0.021292
 30 H s       :     0.904370  s :     0.904370
      pz      :     0.029414  p :     0.069621
      px      :     0.014936
      py      :     0.025271
 31 H s       :     0.900929  s :     0.900929
      pz      :     0.034720  p :     0.068513
      px      :     0.015250
      py      :     0.018543
 32 H s       :     0.896552  s :     0.896552
      pz      :     0.024289  p :     0.076179
      px      :     0.038717
      py      :     0.013174
 33 H s       :     0.895934  s :     0.895934
      pz      :     0.020126  p :     0.071032
      px      :     0.038681
      py      :     0.012225


                      *****************************
                      * MAYER POPULATION ANALYSIS *
                      *****************************

  NA   - Mulliken gross atomic population
  ZA   - Total nuclear charge
  QA   - Mulliken gross atomic charge
  VA   - Mayer's total valence
  BVA  - Mayer's bonded valence
  FA   - Mayer's free valence

  ATOM       NA         ZA         QA         VA         BVA        FA
  0 S     15.8903    16.0000     0.1097     2.4611     2.4611    -0.0000
  1 C      6.1161     6.0000    -0.1161     3.8458     3.8458    -0.0000
  2 C      6.1009     6.0000    -0.1009     4.0138     4.0138     0.0000
  3 C      5.9778     6.0000     0.0222     3.9225     3.9225     0.0000
  4 C      6.1346     6.0000    -0.1346     3.9076     3.9076     0.0000
  5 H      1.0048     1.0000    -0.0048     1.0095     1.0095     0.0000
  6 C      5.9535     6.0000     0.0465     3.9593     3.9593    -0.0000
  7 H      0.9601     1.0000     0.0399     0.9871     0.9871    -0.0000
  8 H      0.9883     1.0000     0.0117     0.9912     0.9912     0.0000
  9 C      6.0538     6.0000    -0.0538     4.0693     4.0693    -0.0000
 10 H      0.9597     1.0000     0.0403     0.9816     0.9816    -0.0000
 11 H      0.9806     1.0000     0.0194     0.9824     0.9824    -0.0000
 12 C      6.0155     6.0000    -0.0155     3.9950     3.9950    -0.0000
 13 H      0.9716     1.0000     0.0284     0.9906     0.9906    -0.0000
 14 H      0.9893     1.0000     0.0107     0.9945     0.9945    -0.0000
 15 H      0.9662     1.0000     0.0338     0.9850     0.9850    -0.0000
 16 S     15.8935    16.0000     0.1065     2.4435     2.4435     0.0000
 17 C      6.1122     6.0000    -0.1122     3.8569     3.8569     0.0000
 18 C      6.0638     6.0000    -0.0638     3.9347     3.9347    -0.0000
 19 C      6.0005     6.0000    -0.0005     3.9826     3.9826     0.0000
 20 C      6.1520     6.0000    -0.1520     3.9367     3.9367     0.0000
 21 H      0.9435     1.0000     0.0565     0.9902     0.9902    -0.0000
 22 C      5.9590     6.0000     0.0410     3.9864     3.9864    -0.0000
 23 H      0.9871     1.0000     0.0129     1.0091     1.0091    -0.0000
 24 H      0.9759     1.0000     0.0241     0.9809     0.9809     0.0000
 25 C      6.0669     6.0000    -0.0669     4.0637     4.0637    -0.0000
 26 H      0.9965     1.0000     0.0035     0.9781     0.9781     0.0000
 27 H      0.9741     1.0000     0.0259     0.9805     0.9805    -0.0000
 28 C      6.0374     6.0000    -0.0374     4.0069     4.0069    -0.0000
 29 H      0.9627     1.0000     0.0373     0.9899     0.9899    -0.0000
 30 H      0.9518     1.0000     0.0482     0.9899     0.9899    -0.0000
 31 H      0.9690     1.0000     0.0310     0.9878     0.9878    -0.0000
 32 H      0.9560     1.0000     0.0440     1.0061     1.0061    -0.0000
 33 H      0.9352     1.0000     0.0648     0.9935     0.9935     0.0000

  Mayer bond orders larger than 0.100000
B(  0-S ,  1-C ) :   1.1231 B(  0-S ,  4-C ) :   1.1337 B(  1-C ,  2-C ) :   1.6350 
B(  1-C , 32-H ) :   0.9612 B(  2-C ,  3-C ) :   1.2215 B(  2-C ,  6-C ) :   1.0224 
B(  3-C ,  4-C ) :   1.5584 B(  3-C ,  5-H ) :   1.0035 B(  4-C , 20-C ) :   1.0797 
B(  6-C ,  7-H ) :   0.9401 B(  6-C ,  8-H ) :   0.9346 B(  6-C ,  9-C ) :   1.0710 
B(  9-C , 10-H ) :   0.9563 B(  9-C , 11-H ) :   0.9476 B(  9-C , 12-C ) :   1.0792 
B( 12-C , 13-H ) :   0.9714 B( 12-C , 14-H ) :   0.9740 B( 12-C , 15-H ) :   0.9738 
B( 16-S , 17-C ) :   1.1314 B( 16-S , 20-C ) :   1.1268 B( 17-C , 18-C ) :   1.6470 
B( 17-C , 33-H ) :   0.9637 B( 18-C , 19-C ) :   1.2030 B( 18-C , 21-H ) :   0.9760 
B( 19-C , 20-C ) :   1.5755 B( 19-C , 22-C ) :   1.0674 B( 22-C , 23-H ) :   0.9393 
B( 22-C , 24-H ) :   0.9239 B( 22-C , 25-C ) :   1.0571 B( 25-C , 26-H ) :   0.9491 
B( 25-C , 27-H ) :   0.9598 B( 25-C , 28-C ) :   1.0716 B( 28-C , 29-H ) :   0.9789 
B( 28-C , 30-H ) :   0.9790 B( 28-C , 31-H ) :   0.9720 

-------
TIMINGS
-------

Total SCF time: 0 days 0 hours 0 min 19 sec 

Total time                  ....      19.921 sec
Sum of individual times     ....      19.032 sec  ( 95.5%)

Fock matrix formation       ....      17.353 sec  ( 87.1%)
  XC integration            ....       1.573 sec  (  9.1% of F)
    Basis function eval.    ....       0.149 sec  (  9.5% of XC)
    Density eval.           ....       0.102 sec  (  6.5% of XC)
    XC-Functional eval.     ....       0.121 sec  (  7.7% of XC)
    XC-Potential eval.      ....       0.115 sec  (  7.3% of XC)
Diagonalization             ....       0.131 sec  (  0.7%)
Density matrix formation    ....       0.028 sec  (  0.1%)
Population analysis         ....       0.050 sec  (  0.3%)
Initial guess               ....       0.163 sec  (  0.8%)
Orbital Transformation      ....       0.000 sec  (  0.0%)
Orbital Orthonormalization  ....       0.000 sec  (  0.0%)
DIIS solution               ....       0.151 sec  (  0.8%)
SOSCF solution              ....       0.149 sec  (  0.7%)
Grid generation             ....       1.007 sec  (  5.1%)


-------------------------------------------------------------------------------
                          DFT DISPERSION CORRECTION                            
                                                                               
                              DFTD3 V3.1  Rev 1                                
                              USING zero damping                               
-------------------------------------------------------------------------------
The omegaB97X-D3 functional is recognized. Fit by Chai et al.
Active option DFTDOPT                   ...         3   

molecular C6(AA) [au] = 14214.389048 


            DFT-D V3
 parameters
 s6 scaling factor         :     1.0000 
 rs6 scaling factor        :     1.2810 
 s8 scaling factor         :     1.0000 
 rs8 scaling factor        :     1.0940 
 Damping factor alpha6     :    14.0000 
 Damping factor alpha8     :    16.0000 
 ad hoc parameters k1-k3   :    16.0000     1.3333    -4.0000 

 Edisp/kcal,au: -8.485179046726  -0.013521992085 
 E6   /kcal   :  -3.699307233 
 E8   /kcal   :  -4.785871814 
 % E8         :  56.402720407 

-------------------------   ----------------
Dispersion correction           -0.013521992
-------------------------   ----------------


-------------------------   --------------------
FINAL SINGLE POINT ENERGY     -1339.862556250812
-------------------------   --------------------


                            ***************************************
                            *     ORCA property calculations      *
                            ***************************************

                                    ---------------------
                                    Active property flags
                                    ---------------------
   (+) Dipole Moment


------------------------------------------------------------------------------
                       ORCA ELECTRIC PROPERTIES CALCULATION
------------------------------------------------------------------------------

Dipole Moment Calculation                       ... on
Quadrupole Moment Calculation                   ... off
Polarizability Calculation                      ... off
GBWName                                         ... config_8848.gbw
Electron density file                           ... config_8848.scfp
The origin for moment calculation is the CENTER OF MASS  = ( 9.172987, -47.015811 -218.014969)

-------------
DIPOLE MOMENT
-------------
                                X             Y             Z
Electronic contribution:    -16.92350       5.23619     -10.78333
Nuclear contribution   :     17.13170      -5.32728      11.17788
                        -----------------------------------------
Total Dipole Moment    :      0.20820      -0.09109       0.39455
                        -----------------------------------------
Magnitude (a.u.)       :      0.45532
Magnitude (Debye)      :      1.15734



--------------------
Rotational spectrum 
--------------------
 
Rotational constants in cm-1:     0.018905     0.007384     0.006345 
Rotational constants in MHz :   566.772139   221.357286   190.221954 

 Dipole components along the rotational axes: 
x,y,z [a.u.] :     0.045895     0.192073     0.410269 
x,y,z [Debye]:     0.116656     0.488212     1.042821 

 

Timings for individual modules:

Sum of individual times         ...       21.091 sec (=   0.352 min)
GTO integral calculation        ...        0.771 sec (=   0.013 min)   3.7 %
SCF iterations                  ...       20.320 sec (=   0.339 min)  96.3 %
                             ****ORCA TERMINATED NORMALLY****
TOTAL RUN TIME: 0 days 0 hours 0 minutes 21 seconds 793 msec
