
                                 *****************
                                 * O   R   C   A *
                                 *****************

           --- An Ab Initio, DFT and Semiempirical electronic structure package ---

                  #######################################################
                  #                        -***-                        #
                  #          Department of theory and spectroscopy      #
                  #               Directorship: Frank Neese             #
                  #        Max Planck Institute fuer Kohlenforschung    #
                  #                Kaiser Wilhelm Platz 1               #
                  #                 D-45470 Muelheim/Ruhr               #
                  #                      Germany                        #
                  #                                                     #
                  #                  All rights reserved                #
                  #                        -***-                        #
                  #######################################################


                         Program Version 4.2.1 -  RELEASE  -


 With contributions from (in alphabetic order):
   Daniel Aravena         : Magnetic Suceptibility
   Michael Atanasov       : Ab Initio Ligand Field Theory (pilot matlab implementation)
   Alexander A. Auer      : GIAO ZORA, VPT2
   Ute Becker             : Parallelization
   Giovanni Bistoni       : ED, misc. LED, open-shell LED, HFLD
   Martin Brehm           : Molecular dynamics
   Dmytro Bykov           : SCF Hessian
   Vijay G. Chilkuri      : MRCI spin determinant printing, contributions to CSF-ICE
   Dipayan Datta          : RHF DLPNO-CCSD density
   Achintya Kumar Dutta   : EOM-CC, STEOM-CC
   Dmitry Ganyushin       : Spin-Orbit,Spin-Spin,Magnetic field MRCI
   Miquel Garcia          : C-PCM Hessian, Gaussian charge scheme
   Yang Guo               : DLPNO-NEVPT2, CIM, IAO-localization
   Andreas Hansen         : Spin unrestricted coupled pair/coupled cluster methods
   Benjamin Helmich-Paris : CASSCF linear response (MC-RPA)
   Lee Huntington         : MR-EOM, pCC
   Robert Izsak           : Overlap fitted RIJCOSX, COSX-SCS-MP3, EOM
   Christian Kollmar      : KDIIS, OOCD, Brueckner-CCSD(T), CCSD density
   Simone Kossmann        : Meta GGA functionals, TD-DFT gradient, OOMP2, MP2 Hessian
   Martin Krupicka        : AUTO-CI
   Lucas Lang             : DCDCAS
   Dagmar Lenk            : GEPOL surface, SMD
   Dimitrios Liakos       : Extrapolation schemes; Compound Job, initial MDCI parallelization
   Dimitrios Manganas     : Further ROCIS development; embedding schemes
   Dimitrios Pantazis     : SARC Basis sets
   Taras Petrenko         : DFT Hessian,TD-DFT gradient, ASA, ECA, R-Raman, ABS, FL, XAS/XES, NRVS
   Peter Pinski           : DLPNO-MP2, DLPNO-MP2 Gradient
   Christoph Reimann      : Effective Core Potentials
   Marius Retegan         : Local ZFS, SOC
   Christoph Riplinger    : Optimizer, TS searches, QM/MM, DLPNO-CCSD(T), (RO)-DLPNO pert. Triples
   Tobias Risthaus        : Range-separated hybrids, TD-DFT gradient, RPA, STAB
   Michael Roemelt        : Original ROCIS implementation
   Masaaki Saitow         : Open-shell DLPNO-CCSD energy and density
   Barbara Sandhoefer     : DKH picture change effects
   Avijit Sen             : IP-ROCIS
   Kantharuban Sivalingam : CASSCF convergence, NEVPT2, FIC-MRCI
   Bernardo de Souza      : ESD, SOC TD-DFT
   Georgi Stoychev        : AutoAux, RI-MP2 NMR
   Willem Van den Heuvel  : Paramagnetic NMR
   Boris Wezisla          : Elementary symmetry handling
   Frank Wennmohs         : Technical directorship


 We gratefully acknowledge several colleagues who have allowed us to
 interface, adapt or use parts of their codes:
   Stefan Grimme, W. Hujo, H. Kruse,             : VdW corrections, initial TS optimization,
                  C. Bannwarth                     DFT functionals, gCP, sTDA/sTD-DF
   Ed Valeev, F. Pavosevic, A. Kumar             : LibInt (2-el integral package), F12 methods
   Garnet Chan, S. Sharma, J. Yang, R. Olivares  : DMRG
   Ulf Ekstrom                                   : XCFun DFT Library
   Mihaly Kallay                                 : mrcc  (arbitrary order and MRCC methods)
   Andreas Klamt, Michael Diedenhofen            : otool_cosmo (COSMO solvation model)
   Jiri Pittner, Ondrej Demel                    : Mk-CCSD
   Frank Weinhold                                : gennbo (NPA and NBO analysis)
   Christopher J. Cramer and Donald G. Truhlar   : smd solvation model
   Lars Goerigk                                  : TD-DFT with DH, B97 family of functionals
   V. Asgeirsson, H. Jonsson                     : NEB implementation
   FAccTs GmbH                                   : IRC, NEB, NEB-TS, Multilevel, MM, QM/MM, CI optimization
   S Lehtola, MJT Oliveira, MAL Marques          : LibXC Library


 Your calculation uses the libint2 library for the computation of 2-el integrals
 For citations please refer to: http://libint.valeyev.net

 Your ORCA version has been built with support for libXC version: 4.2.3
 For citations please refer to: https://tddft.org/programs/libxc/

 This ORCA versions uses:
   CBLAS   interface :  Fast vector & matrix operations
   LAPACKE interface :  Fast linear algebra routines
   SCALAPACK package :  Parallel linear algebra routines


Your calculation utilizes the atom-pairwise dispersion correction
with the zero-damping scheme (D30)
Cite in your paper:
S.Grimme, J.Antony, S.Ehrlich and H.Krieg, J.Chem.Phys., 132, (2010), 154104 
   

XCFun DFT library Copyright 2009-2010 Ulf Ekstrom and contributors.
See http://admol.org/xcfun for more information. This is free soft-
ware; see the source code for copying conditions. There is ABSOLUTELY
NO WARRANTY; not even for MERCHANTABILITY or FITNESS FOR A PARTICULAR
PURPOSE. For details see the documentation. Scientific users of this 
library should cite U. Ekstrom, L. Visscher, R. Bast, A. J. Thorvald-
sen and K. Ruud; J.Chem.Theor.Comp. 2010, DOI: 10.1021/ct100117s
XCFun Version 0.99 
----- Orbital basis set information -----
Your calculation utilizes the basis: def2-SVP
   F. Weigend and R. Ahlrichs, Phys. Chem. Chem. Phys. 7, 3297 (2005).

================================================================================
                                        WARNINGS
                       Please study these warnings very carefully!
================================================================================


INFO   : the flag for use of LIBINT has been found!

================================================================================
                                       INPUT FILE
================================================================================
NAME = config_489.inp
|  1> ! wB97X-D3 SP def2-SVP
|  2> %pal
|  3> nprocs 24
|  4> end
|  5> 
|  6> * xyz 0 1
|  7> S 	 -51.4854 	 -5.04494 	 -18.7201 	 
|  8> C 	 -53.0464 	 -5.46433 	 -19.3233 	 
|  9> C 	 -53.8927 	 -4.33488 	 -19.2989 	 
| 10> C 	 -53.1513 	 -3.10489 	 -18.9786 	 
| 11> C 	 -51.818 	 -3.34494 	 -18.68 	 
| 12> H 	 -53.453 	 -2.07932 	 -18.7415 	 
| 13> C 	 -55.3708 	 -4.28684 	 -19.5805 	 
| 14> H 	 -55.4369 	 -3.67561 	 -20.4457 	 
| 15> H 	 -55.8287 	 -3.82166 	 -18.8092 	 
| 16> C 	 -55.9718 	 -5.67407 	 -19.7134 	 
| 17> H 	 -55.6843 	 -6.16552 	 -20.7211 	 
| 18> H 	 -55.7864 	 -6.27886 	 -18.8385 	 
| 19> C 	 -57.5849 	 -5.52094 	 -19.7835 	 
| 20> H 	 -57.8401 	 -5.10788 	 -20.7443 	 
| 21> H 	 -58.0709 	 -6.45789 	 -19.9403 	 
| 22> H 	 -58.0615 	 -4.8638 	 -19.0031 	 
| 23> S 	 -49.2822 	 -2.81842 	 -19.2211 	 
| 24> C 	 -48.5146 	 -1.3199 	 -18.7229 	 
| 25> C 	 -49.4056 	 -0.513689 	 -18.0195 	 
| 26> C 	 -50.708 	 -1.1148 	 -17.899 	 
| 27> C 	 -50.796 	 -2.36815 	 -18.5148 	 
| 28> H 	 -49.0578 	 0.442294 	 -17.7028 	 
| 29> C 	 -51.74 	 -0.432103 	 -17.002 	 
| 30> H 	 -52.4258 	 -1.28028 	 -16.813 	 
| 31> H 	 -52.2032 	 0.383378 	 -17.5708 	 
| 32> C 	 -51.3562 	 0.166719 	 -15.7122 	 
| 33> H 	 -50.6879 	 1.04531 	 -15.7995 	 
| 34> H 	 -50.8179 	 -0.595467 	 -15.1729 	 
| 35> C 	 -52.5396 	 0.770985 	 -14.9289 	 
| 36> H 	 -53.0586 	 1.46472 	 -15.5385 	 
| 37> H 	 -52.1086 	 1.34454 	 -14.1597 	 
| 38> H 	 -53.1548 	 -0.0348371 	 -14.4698 	 
| 39> H 	 -53.3824 	 -6.44512 	 -19.6561 	 
| 40> H 	 -47.5631 	 -0.954048 	 -19.0571 	 
| 41> *
| 42> 
| 43>                          ****END OF INPUT****
================================================================================

                       ****************************
                       * Single Point Calculation *
                       ****************************

---------------------------------
CARTESIAN COORDINATES (ANGSTROEM)
---------------------------------
  S    -51.485400   -5.044940  -18.720100
  C    -53.046400   -5.464330  -19.323300
  C    -53.892700   -4.334880  -19.298900
  C    -53.151300   -3.104890  -18.978600
  C    -51.818000   -3.344940  -18.680000
  H    -53.453000   -2.079320  -18.741500
  C    -55.370800   -4.286840  -19.580500
  H    -55.436900   -3.675610  -20.445700
  H    -55.828700   -3.821660  -18.809200
  C    -55.971800   -5.674070  -19.713400
  H    -55.684300   -6.165520  -20.721100
  H    -55.786400   -6.278860  -18.838500
  C    -57.584900   -5.520940  -19.783500
  H    -57.840100   -5.107880  -20.744300
  H    -58.070900   -6.457890  -19.940300
  H    -58.061500   -4.863800  -19.003100
  S    -49.282200   -2.818420  -19.221100
  C    -48.514600   -1.319900  -18.722900
  C    -49.405600   -0.513689  -18.019500
  C    -50.708000   -1.114800  -17.899000
  C    -50.796000   -2.368150  -18.514800
  H    -49.057800    0.442294  -17.702800
  C    -51.740000   -0.432103  -17.002000
  H    -52.425800   -1.280280  -16.813000
  H    -52.203200    0.383378  -17.570800
  C    -51.356200    0.166719  -15.712200
  H    -50.687900    1.045310  -15.799500
  H    -50.817900   -0.595467  -15.172900
  C    -52.539600    0.770985  -14.928900
  H    -53.058600    1.464720  -15.538500
  H    -52.108600    1.344540  -14.159700
  H    -53.154800   -0.034837  -14.469800
  H    -53.382400   -6.445120  -19.656100
  H    -47.563100   -0.954048  -19.057100

----------------------------
CARTESIAN COORDINATES (A.U.)
----------------------------
  NO LB      ZA    FRAG     MASS         X           Y           Z
   0 S    16.0000    0    32.060  -97.293306   -9.533555  -35.375862
   1 C     6.0000    0    12.011  -100.243168  -10.326087  -36.515745
   2 C     6.0000    0    12.011  -101.842444   -8.191736  -36.469636
   3 C     6.0000    0    12.011  -100.441401   -5.867392  -35.864356
   4 C     6.0000    0    12.011  -97.921829   -6.321021  -35.300084
   5 H     1.0000    0     1.008  -101.011531   -3.929345  -35.416302
   6 C     6.0000    0    12.011  -104.635648   -8.100954  -37.001783
   7 H     1.0000    0     1.008  -104.760559   -6.945896  -38.636774
   8 H     1.0000    0     1.008  -105.500953   -7.221891  -35.544237
   9 C     6.0000    0    12.011  -105.771373  -10.722438  -37.252927
  10 H     1.0000    0     1.008  -105.228077  -11.651144  -39.157204
  11 H     1.0000    0     1.008  -105.421018  -11.865326  -35.599606
  12 C     6.0000    0    12.011  -108.819690  -10.433065  -37.385397
  13 H     1.0000    0     1.008  -109.301949   -9.652494  -39.201046
  14 H     1.0000    0     1.008  -109.738097  -12.203644  -37.681706
  15 H     1.0000    0     1.008  -109.720334   -9.191250  -35.910655
  16 S    16.0000    0    32.060  -93.129861   -5.326042  -36.322615
  17 C     6.0000    0    12.011  -91.679307   -2.494250  -35.381153
  18 C     6.0000    0    12.011  -93.363053   -0.970732  -34.051920
  19 C     6.0000    0    12.011  -95.824233   -2.106667  -33.824208
  20 C     6.0000    0    12.011  -95.990529   -4.475155  -34.987901
  21 H     1.0000    0     1.008  -92.705807    0.835815  -33.453444
  22 C     6.0000    0    12.011  -97.774430   -0.816556  -32.129124
  23 H     1.0000    0     1.008  -99.070404   -2.419379  -31.771965
  24 H     1.0000    0     1.008  -98.649751    0.724479  -33.204000
  25 C     6.0000    0    12.011  -97.049153    0.315053  -29.691755
  26 H     1.0000    0     1.008  -95.786249    1.975350  -29.856728
  27 H     1.0000    0     1.008  -96.031914   -1.125270  -28.672626
  28 C     6.0000    0    12.011  -99.285455    1.456951  -28.211532
  29 H     1.0000    0     1.008  -100.266223    2.767920  -29.363510
  30 H     1.0000    0     1.008  -98.470983    2.540812  -26.757955
  31 H     1.0000    0     1.008  -100.448015   -0.065833  -27.343959
  32 H     1.0000    0     1.008  -100.878116  -12.179512  -37.144646
  33 H     1.0000    0     1.008  -89.881233   -1.802889  -36.012700

--------------------------------
INTERNAL COORDINATES (ANGSTROEM)
--------------------------------
 S      0   0   0     0.000000000000     0.00000000     0.00000000
 C      1   0   0     1.725241783664     0.00000000     0.00000000
 C      2   1   0     1.411551044950   109.99413809     0.00000000
 C      3   2   1     1.471441962872   111.74783745     9.08505527
 C      4   3   2     1.387254429620   112.73514126   355.63290315
 H      4   3   2     1.095003709994   133.72607849   189.38305419
 C      3   2   1     1.505452095419   127.65895081   187.77756784
 H      7   3   2     1.061386999591   103.41488598   243.60862165
 H      7   3   2     1.010429875053   108.47227801   127.74904887
 C      7   3   2     1.517652952061   112.08756073     8.65526400
 H     10   7   3     1.157427597088   111.46858168   285.62085440
 H     10   7   3     1.079626840209   111.90539572    56.19224056
 C     10   7   3     1.621867570704   108.14050798   171.35393685
 H     13  10   7     1.076513930983   108.09439040    72.24943665
 H     13  10   7     1.067078976693   112.11309790   176.36102638
 H     13  10   7     1.126057147573   116.49394449   311.66596194
 S      5   4   3     2.645806901571   147.42536337   124.19334616
 C     17   5   4     1.755840308912   122.05970812    75.56522353
 C     18  17   5     1.392346485800   110.96259542     0.88468930
 C     19  18  17     1.439479226776   112.30152432   359.56953278
 C     20  19  18     1.399228309641   113.21076151   359.79500829
 H     19  18  17     1.065442267929   117.43963039   182.51628869
 C     20  19  18     1.528302389519   118.26491702   172.32068758
 H     23  20  19     1.106999034927   100.15298425   200.64724872
 H     23  20  19     1.096857758035   108.23449797    81.75468890
 C     23  20  19     1.472913530281   121.30642585   320.21615996
 H     26  23  20     1.107324850837   114.25515283    66.32177591
 H     26  23  20     1.077747131101   106.30889941   308.04837728
 C     26  23  20     1.542443466956   113.83171140   181.75976581
 H     29  26  23     1.059358961932   109.88899055   305.76841172
 H     29  26  23     1.051853116184   105.70073721   192.57453175
 H     29  26  23     1.112920979607   110.48352476    75.22226148
 H      2   1   3     1.088853003899   127.23117802   181.69373406
 H     18  17   5     1.072795216201   126.18533663   192.32895004

---------------------------
INTERNAL COORDINATES (A.U.)
---------------------------
 S      0   0   0     0.000000000000     0.00000000     0.00000000
 C      1   0   0     3.260234485923     0.00000000     0.00000000
 C      2   1   0     2.667444899006   109.99413809     0.00000000
 C      3   2   1     2.780622331787   111.74783745     9.08505527
 C      4   3   2     2.621530950051   112.73514126   355.63290315
 H      4   3   2     2.069257127516   133.72607849   189.38305419
 C      3   2   1     2.844892168079   127.65895081   187.77756784
 H      7   3   2     2.005730751331   103.41488598   243.60862165
 H      7   3   2     1.909435741383   108.47227801   127.74904887
 C      7   3   2     2.867948445733   112.08756073     8.65526400
 H     10   7   3     2.187221178338   111.46858168   285.62085440
 H     10   7   3     2.040199054826   111.90539572    56.19224056
 C     10   7   3     3.064885534118   108.14050798   171.35393685
 H     13  10   7     2.034316508908   108.09439040    72.24943665
 H     13  10   7     2.016487029215   112.11309790   176.36102638
 H     13  10   7     2.127939620057   116.49394449   311.66596194
 S      5   4   3     4.999850447208   147.42536337   124.19334616
 C     17   5   4     3.318057318743   122.05970812    75.56522353
 C     18  17   5     2.631153541691   110.96259542     0.88468930
 C     19  18  17     2.720221514076   112.30152432   359.56953278
 C     20  19  18     2.644158304051   113.21076151   359.79500829
 H     19  18  17     2.013394097889   117.43963039   182.51628869
 C     20  19  18     2.888072966008   118.26491702   172.32068758
 H     23  20  19     2.091925006527   100.15298425   200.64724872
 H     23  20  19     2.072760770553   108.23449797    81.75468890
 C     23  20  19     2.783403191178   121.30642585   320.21615996
 H     26  23  20     2.092540709367   114.25515283    66.32177591
 H     26  23  20     2.036646919400   106.30889941   308.04837728
 C     26  23  20     2.914795729603   113.83171140   181.75976581
 H     29  26  23     2.001898315566   109.88899055   305.76841172
 H     29  26  23     1.987714322699   105.70073721   192.57453175
 H     29  26  23     2.103115860152   110.48352476    75.22226148
 H      2   1   3     2.057633977467   127.23117802   181.69373406
 H     18  17   5     2.027289156401   126.18533663   192.32895004

---------------------
BASIS SET INFORMATION
---------------------
There are 3 groups of distinct atoms

 Group   1 Type S   : 10s7p1d contracted to 4s3p1d pattern {5311/511/1}
 Group   2 Type C   : 7s4p1d contracted to 3s2p1d pattern {511/31/1}
 Group   3 Type H   : 4s1p contracted to 2s1p pattern {31/1}

Atom   0S    basis set group =>   1
Atom   1C    basis set group =>   2
Atom   2C    basis set group =>   2
Atom   3C    basis set group =>   2
Atom   4C    basis set group =>   2
Atom   5H    basis set group =>   3
Atom   6C    basis set group =>   2
Atom   7H    basis set group =>   3
Atom   8H    basis set group =>   3
Atom   9C    basis set group =>   2
Atom  10H    basis set group =>   3
Atom  11H    basis set group =>   3
Atom  12C    basis set group =>   2
Atom  13H    basis set group =>   3
Atom  14H    basis set group =>   3
Atom  15H    basis set group =>   3
Atom  16S    basis set group =>   1
Atom  17C    basis set group =>   2
Atom  18C    basis set group =>   2
Atom  19C    basis set group =>   2
Atom  20C    basis set group =>   2
Atom  21H    basis set group =>   3
Atom  22C    basis set group =>   2
Atom  23H    basis set group =>   3
Atom  24H    basis set group =>   3
Atom  25C    basis set group =>   2
Atom  26H    basis set group =>   3
Atom  27H    basis set group =>   3
Atom  28C    basis set group =>   2
Atom  29H    basis set group =>   3
Atom  30H    basis set group =>   3
Atom  31H    basis set group =>   3
Atom  32H    basis set group =>   3
Atom  33H    basis set group =>   3


           ************************************************************
           *        Program running with 24 parallel MPI-processes    *
           *              working on a common directory               *
           ************************************************************
------------------------------------------------------------------------------
                           ORCA GTO INTEGRAL CALCULATION
------------------------------------------------------------------------------

                         BASIS SET STATISTICS AND STARTUP INFO

 # of primitive gaussian shells          ...  294
 # of primitive gaussian functions       ...  534
 # of contracted shells                  ...  154
 # of contracted basis functions         ...  322
 Highest angular momentum                ...    2
 Maximum contraction depth               ...    5
 Integral package used                   ... LIBINT
 Integral threshhold            Thresh   ...  1.000e-10
 Primitive cut-off              TCut     ...  1.000e-11


------------------------------ INTEGRAL EVALUATION ----------------------------


 * One electron integrals 
 Pre-screening matrix                    ... done
 Shell pair data                         ... done (   0.003 sec)



           ************************************************************
           *        Program running with 24 parallel MPI-processes    *
           *              working on a common directory               *
           ************************************************************
-------------------------------------------------------------------------------
                                 ORCA SCF
-------------------------------------------------------------------------------

------------
SCF SETTINGS
------------
Hamiltonian:
 Density Functional     Method          .... DFT(GTOs)
 Exchange Functional    Exchange        .... WB97X-D3
 Correlation Functional Correlation     .... WB97X-D3
 Gradients option       PostSCFGGA      .... off
 Hybrid DFT is turned on
   Fraction HF Exchange ScalHFX         ....  0.195728
   Scaling of DF-GGA-X  ScalDFX         ....  0.000000
   Scaling of DF-GGA-C  ScalDFC         ....  1.000000
   Scaling of DF-LDA-C  ScalLDAC        ....  1.000000
   Perturbative correction              ....  0.000000
   Density functional embedding theory  .... OFF
 Long-range corrected/Screened/Range-Separated Hybrid DFT is turned on
   Amount of maximum screened exact exchange              ....  0.804272
   Range separation parameter mu (erf(mu*r12)/r12)        ....  0.250000


General Settings:
 Integral files         IntName         .... config_489
 Hartree-Fock type      HFTyp           .... RHF
 Total Charge           Charge          ....    0
 Multiplicity           Mult            ....    1
 Number of Electrons    NEL             ....  134
 Basis Dimension        Dim             ....  322
 Nuclear Repulsion      ENuc            ....   1262.1367426649 Eh

Convergence Acceleration:
 DIIS                   CNVDIIS         .... on
   Start iteration      DIISMaxIt       ....    12
   Startup error        DIISStart       ....  0.200000
   # of expansion vecs  DIISMaxEq       ....     5
   Bias factor          DIISBfac        ....   1.050
   Max. coefficient     DIISMaxC        ....  10.000
 Newton-Raphson         CNVNR           .... off
 SOSCF                  CNVSOSCF        .... on
   Start iteration      SOSCFMaxIt      ....   150
   Startup grad/error   SOSCFStart      ....  0.003300
 Level Shifting         CNVShift        .... on
   Level shift para.    LevelShift      ....    0.2500
   Turn off err/grad.   ShiftErr        ....    0.0010
 Zerner damping         CNVZerner       .... off
 Static damping         CNVDamp         .... on
   Fraction old density DampFac         ....    0.7000
   Max. Damping (<1)    DampMax         ....    0.9800
   Min. Damping (>=0)   DampMin         ....    0.0000
   Turn off err/grad.   DampErr         ....    0.1000
 Fernandez-Rico         CNVRico         .... off

SCF Procedure:
 Maximum # iterations   MaxIter         ....   125
 SCF integral mode      SCFMode         .... Direct
   Integral package                     .... LIBINT
 Reset frequency        DirectResetFreq ....    20
 Integral Threshold     Thresh          ....  1.000e-10 Eh
 Primitive CutOff       TCut            ....  1.000e-11 Eh

Convergence Tolerance:
 Convergence Check Mode ConvCheckMode   .... Total+1el-Energy
 Convergence forced     ConvForced      .... 0
 Energy Change          TolE            ....  1.000e-06 Eh
 1-El. energy change                    ....  1.000e-03 Eh
 Orbital Gradient       TolG            ....  5.000e-05
 Orbital Rotation angle TolX            ....  5.000e-05
 DIIS Error             TolErr          ....  1.000e-06


Diagonalization of the overlap matrix:
Smallest eigenvalue                        ... 6.894e-04
Time for diagonalization                   ...    0.014 sec
Threshold for overlap eigenvalues          ... 1.000e-08
Number of eigenvalues below threshold      ... 0
Time for construction of square roots      ...    0.027 sec
Total time needed                          ...    0.042 sec

-------------------
DFT GRID GENERATION
-------------------

General Integration Accuracy     IntAcc      ...  4.340
Radial Grid Type                 RadialGrid  ... Gauss-Chebyshev
Angular Grid (max. acc.)         AngularGrid ... Lebedev-110
Angular grid pruning method      GridPruning ... 3 (G Style)
Weight generation scheme         WeightScheme... Becke
Basis function cutoff            BFCut       ...    1.0000e-10
Integration weight cutoff        WCut        ...    1.0000e-14
Grids for H and He will be reduced by one unit

# of grid points (after initial pruning)     ...  41088 (   0.0 sec)
# of grid points (after weights+screening)   ...  37152 (   0.0 sec)
nearest neighbour list constructed           ...    0.0 sec
Grid point re-assignment to atoms done       ...    0.0 sec
Grid point division into batches done        ...    0.0 sec
Reduced shell lists constructed in    0.1 sec

Total number of grid points                  ...    37152
Total number of batches                      ...      598
Average number of points per batch           ...       62
Average number of grid points per atom       ...     1093
Average number of shells per batch           ...    69.23 (44.96%)
Average number of basis functions per batch  ...   137.23 (42.62%)
Average number of large shells per batch     ...    44.00 (63.56%)
Average number of large basis fcns per batch ...    92.15 (67.15%)
Maximum spatial batch extension              ...  14.10, 13.29, 24.36 au
Average spatial batch extension              ...   0.18,  0.15,  0.21 au

Time for grid setup =    0.147 sec

------------------------------
INITIAL GUESS: MODEL POTENTIAL
------------------------------
Loading Hartree-Fock densities                     ... done
Calculating cut-offs                               ... done
Setting up the integral package                    ... done
Initializing the effective Hamiltonian             ... done
Starting the Coulomb interaction                   ... done (   0.0 sec)
Reading the grid                                   ... done
Mapping shells                                     ... done
Starting the XC term evaluation                    ... done (   0.0 sec)
  promolecular density results
     # of electrons  =    133.983867537
     EX              =   -126.738581562
     EC              =     -4.624266191
     EX+EC           =   -131.362847752
Transforming the Hamiltonian                       ... done (   0.0 sec)
Diagonalizing the Hamiltonian                      ... done (   0.0 sec)
Back transforming the eigenvectors                 ... done (   0.0 sec)
Now organizing SCF variables                       ... done
                      ------------------
                      INITIAL GUESS DONE (   0.3 sec)
                      ------------------
--------------
SCF ITERATIONS
--------------
ITER       Energy         Delta-E        Max-DP      RMS-DP      [F,P]     Damp
               ***  Starting incremental Fock matrix formation  ***
  0  -1339.4200871117   0.000000000000 0.06635057  0.00158825  0.1568608 0.7000
  1  -1339.6001097164  -0.180022604716 0.04471420  0.00115769  0.0954160 0.7000
                               ***Turning on DIIS***
  2  -1339.6885272228  -0.088417506404 0.08541544  0.00219455  0.0499899 0.0000
  3  -1339.8231674595  -0.134640236710 0.04244674  0.00096839  0.0422489 0.0000
  4  -1339.8509113071  -0.027743847599 0.00756988  0.00019460  0.0073513 0.0000
                      *** Initiating the SOSCF procedure ***
                           *** Shutting down DIIS ***
                      *** Re-Reading the Fockian *** 
                      *** Removing any level shift *** 
ITER      Energy       Delta-E        Grad      Rot      Max-DP    RMS-DP
  5  -1339.85177978  -0.0008684710  0.001411  0.001411  0.003226  0.000100
               *** Restarting incremental Fock matrix formation ***
  6  -1339.85197086  -0.0001910801  0.001185  0.003402  0.002459  0.000065
  7  -1339.85203784  -0.0000669773  0.000702  0.004444  0.003388  0.000064
  8  -1339.85205611  -0.0000182780  0.000362  0.000748  0.000863  0.000019
  9  -1339.85206043  -0.0000043119  0.000141  0.000365  0.000261  0.000009
 10  -1339.85206082  -0.0000003970  0.000066  0.000179  0.000147  0.000004
                 **** Energy Check signals convergence ****
              ***Rediagonalizing the Fockian in SOSCF/NRSCF***

               *****************************************************
               *                     SUCCESS                       *
               *           SCF CONVERGED AFTER  11 CYCLES          *
               *****************************************************

Setting up the final grid:

General Integration Accuracy     IntAcc      ...  4.670
Radial Grid Type                 RadialGrid  ... Gauss-Chebyshev
Angular Grid (max. acc.)         AngularGrid ... Lebedev-302
Angular grid pruning method      GridPruning ... 3 (G Style)
Weight generation scheme         WeightScheme... Becke
Basis function cutoff            BFCut       ...    1.0000e-10
Integration weight cutoff        WCut        ...    1.0000e-14
Grids for H and He will be reduced by one unit

# of grid points (after initial pruning)     ... 161752 (   0.0 sec)
# of grid points (after weights+screening)   ... 143563 (   0.1 sec)
nearest neighbour list constructed           ...    0.0 sec
Grid point re-assignment to atoms done       ...    0.0 sec
Grid point division into batches done        ...    0.5 sec
Reduced shell lists constructed in    0.5 sec

Total number of grid points                  ...   143563
Total number of batches                      ...     2262
Average number of points per batch           ...       63
Average number of grid points per atom       ...     4222
Average number of shells per batch           ...    63.94 (41.52%)
Average number of basis functions per batch  ...   126.56 (39.31%)
Average number of large shells per batch     ...    39.56 (61.88%)
Average number of large basis fcns per batch ...    82.60 (65.27%)
Maximum spatial batch extension              ...  12.68, 13.98, 16.02 au
Average spatial batch extension              ...   0.11,  0.11,  0.11 au

Final grid set up in    0.8 sec
Final integration                            ... done (   0.3 sec)
Change in XC energy                          ...     0.008332592
Integrated number of electrons               ...   134.000011510
Previous integrated no of electrons          ...   133.993984080

----------------
TOTAL SCF ENERGY
----------------

Total Energy       :        -1339.84372851 Eh          -36459.00139 eV

Components:
Nuclear Repulsion  :         1262.13674266 Eh           34344.48681 eV
Electronic Energy  :        -2601.98047117 Eh          -70803.48820 eV
One Electron Energy:        -4340.78693432 Eh         -118118.81753 eV
Two Electron Energy:         1738.80646315 Eh           47315.32933 eV

Virial components:
Potential Energy   :        -2671.48038658 Eh          -72694.67704 eV
Kinetic Energy     :         1331.63665807 Eh           36235.67565 eV
Virial Ratio       :            2.00616315


DFT components:
N(Alpha)           :       67.000005755120 electrons
N(Beta)            :       67.000005755120 electrons
N(Total)           :      134.000011510239 electrons
E(XC)              :      -94.282509762134 Eh       
DFET-embed. en.    :        0.000000000000 Eh       

---------------
SCF CONVERGENCE
---------------

  Last Energy change         ...   -2.7911e-07  Tolerance :   1.0000e-06
  Last MAX-Density change    ...    3.2414e-05  Tolerance :   1.0000e-05
  Last RMS-Density change    ...    7.1689e-07  Tolerance :   1.0000e-06
  Last Orbital Gradient      ...    7.8468e-06  Tolerance :   5.0000e-05
  Last Orbital Rotation      ...    2.0724e-05  Tolerance :   5.0000e-05

             **** THE GBW FILE WAS UPDATED (config_489.gbw) ****
             **** DENSITY FILE WAS UPDATED (config_489.scfp) ****
             **** ENERGY FILE WAS UPDATED (config_489.en.tmp) ****
             **** THE GBW FILE WAS UPDATED (config_489.gbw) ****
             **** DENSITY FILE WAS UPDATED (config_489.scfp) ****
----------------
ORBITAL ENERGIES
----------------

  NO   OCC          E(Eh)            E(eV) 
   0   2.0000     -88.964700     -2420.8525 
   1   2.0000     -88.964651     -2420.8512 
   2   2.0000     -10.326683      -281.0033 
   3   2.0000     -10.325260      -280.9646 
   4   2.0000     -10.315532      -280.6999 
   5   2.0000     -10.314480      -280.6713 
   6   2.0000     -10.306679      -280.4590 
   7   2.0000     -10.306164      -280.4450 
   8   2.0000     -10.299621      -280.2669 
   9   2.0000     -10.294535      -280.1285 
  10   2.0000     -10.293249      -280.0936 
  11   2.0000     -10.289860      -280.0013 
  12   2.0000     -10.282944      -279.8131 
  13   2.0000     -10.281234      -279.7666 
  14   2.0000     -10.281000      -279.7602 
  15   2.0000     -10.275984      -279.6237 
  16   2.0000      -8.079921      -219.8658 
  17   2.0000      -8.079671      -219.8590 
  18   2.0000      -6.038476      -164.3153 
  19   2.0000      -6.038258      -164.3093 
  20   2.0000      -6.034311      -164.2020 
  21   2.0000      -6.033968      -164.1926 
  22   2.0000      -6.030639      -164.1020 
  23   2.0000      -6.030484      -164.0978 
  24   2.0000      -1.010229       -27.4897 
  25   2.0000      -0.981761       -26.7151 
  26   2.0000      -0.918390       -24.9907 
  27   2.0000      -0.914029       -24.8720 
  28   2.0000      -0.871306       -23.7094 
  29   2.0000      -0.853950       -23.2372 
  30   2.0000      -0.841310       -22.8932 
  31   2.0000      -0.813977       -22.1494 
  32   2.0000      -0.782701       -21.2984 
  33   2.0000      -0.773405       -21.0454 
  34   2.0000      -0.714917       -19.4539 
  35   2.0000      -0.702745       -19.1227 
  36   2.0000      -0.690671       -18.7941 
  37   2.0000      -0.662968       -18.0403 
  38   2.0000      -0.639166       -17.3926 
  39   2.0000      -0.604735       -16.4557 
  40   2.0000      -0.593288       -16.1442 
  41   2.0000      -0.581609       -15.8264 
  42   2.0000      -0.580414       -15.7939 
  43   2.0000      -0.567688       -15.4476 
  44   2.0000      -0.529889       -14.4190 
  45   2.0000      -0.520778       -14.1711 
  46   2.0000      -0.518538       -14.1101 
  47   2.0000      -0.516678       -14.0595 
  48   2.0000      -0.509477       -13.8636 
  49   2.0000      -0.504242       -13.7211 
  50   2.0000      -0.493059       -13.4168 
  51   2.0000      -0.479941       -13.0599 
  52   2.0000      -0.478173       -13.0118 
  53   2.0000      -0.461820       -12.5668 
  54   2.0000      -0.460285       -12.5250 
  55   2.0000      -0.448755       -12.2112 
  56   2.0000      -0.441275       -12.0077 
  57   2.0000      -0.436883       -11.8882 
  58   2.0000      -0.433082       -11.7848 
  59   2.0000      -0.427788       -11.6407 
  60   2.0000      -0.420997       -11.4559 
  61   2.0000      -0.414008       -11.2657 
  62   2.0000      -0.406562       -11.0631 
  63   2.0000      -0.355477        -9.6730 
  64   2.0000      -0.329828        -8.9751 
  65   2.0000      -0.322844        -8.7850 
  66   2.0000      -0.284532        -7.7425 
  67   0.0000       0.025626         0.6973 
  68   0.0000       0.079864         2.1732 
  69   0.0000       0.111066         3.0223 
  70   0.0000       0.119317         3.2468 
  71   0.0000       0.137295         3.7360 
  72   0.0000       0.142146         3.8680 
  73   0.0000       0.148977         4.0539 
  74   0.0000       0.160694         4.3727 
  75   0.0000       0.167693         4.5632 
  76   0.0000       0.171866         4.6767 
  77   0.0000       0.177599         4.8327 
  78   0.0000       0.186422         5.0728 
  79   0.0000       0.191095         5.2000 
  80   0.0000       0.196286         5.3412 
  81   0.0000       0.199261         5.4222 
  82   0.0000       0.209556         5.7023 
  83   0.0000       0.217059         5.9065 
  84   0.0000       0.224474         6.1082 
  85   0.0000       0.231835         6.3086 
  86   0.0000       0.237136         6.4528 
  87   0.0000       0.242994         6.6122 
  88   0.0000       0.247959         6.7473 
  89   0.0000       0.253453         6.8968 
  90   0.0000       0.261815         7.1243 
  91   0.0000       0.264488         7.1971 
  92   0.0000       0.272313         7.4100 
  93   0.0000       0.286717         7.8020 
  94   0.0000       0.296958         8.0806 
  95   0.0000       0.303449         8.2573 
  96   0.0000       0.324645         8.8340 
  97   0.0000       0.338240         9.2040 
  98   0.0000       0.345436         9.3998 
  99   0.0000       0.369543        10.0558 
 100   0.0000       0.375096        10.2069 
 101   0.0000       0.393185        10.6991 
 102   0.0000       0.406589        11.0638 
 103   0.0000       0.419086        11.4039 
 104   0.0000       0.427452        11.6316 
 105   0.0000       0.444537        12.0965 
 106   0.0000       0.460925        12.5424 
 107   0.0000       0.486894        13.2491 
 108   0.0000       0.493859        13.4386 
 109   0.0000       0.506375        13.7792 
 110   0.0000       0.509279        13.8582 
 111   0.0000       0.516964        14.0673 
 112   0.0000       0.521301        14.1853 
 113   0.0000       0.530392        14.4327 
 114   0.0000       0.537544        14.6273 
 115   0.0000       0.540100        14.6969 
 116   0.0000       0.544837        14.8258 
 117   0.0000       0.562085        15.2951 
 118   0.0000       0.564957        15.3733 
 119   0.0000       0.567833        15.4515 
 120   0.0000       0.583707        15.8835 
 121   0.0000       0.594191        16.1688 
 122   0.0000       0.605220        16.4689 
 123   0.0000       0.611090        16.6286 
 124   0.0000       0.613181        16.6855 
 125   0.0000       0.632279        17.2052 
 126   0.0000       0.636492        17.3198 
 127   0.0000       0.641890        17.4667 
 128   0.0000       0.653944        17.7947 
 129   0.0000       0.663647        18.0588 
 130   0.0000       0.668432        18.1890 
 131   0.0000       0.681466        18.5436 
 132   0.0000       0.683792        18.6069 
 133   0.0000       0.689514        18.7626 
 134   0.0000       0.704034        19.1578 
 135   0.0000       0.710596        19.3363 
 136   0.0000       0.719045        19.5662 
 137   0.0000       0.726354        19.7651 
 138   0.0000       0.737190        20.0600 
 139   0.0000       0.739873        20.1330 
 140   0.0000       0.740640        20.1538 
 141   0.0000       0.749726        20.4011 
 142   0.0000       0.754098        20.5201 
 143   0.0000       0.759226        20.6596 
 144   0.0000       0.762949        20.7609 
 145   0.0000       0.768402        20.9093 
 146   0.0000       0.775731        21.1087 
 147   0.0000       0.779580        21.2134 
 148   0.0000       0.786171        21.3928 
 149   0.0000       0.791320        21.5329 
 150   0.0000       0.791764        21.5450 
 151   0.0000       0.795895        21.6574 
 152   0.0000       0.799279        21.7495 
 153   0.0000       0.800959        21.7952 
 154   0.0000       0.803585        21.8667 
 155   0.0000       0.807349        21.9691 
 156   0.0000       0.813965        22.1491 
 157   0.0000       0.816231        22.2108 
 158   0.0000       0.817653        22.2495 
 159   0.0000       0.827706        22.5230 
 160   0.0000       0.833816        22.6893 
 161   0.0000       0.839098        22.8330 
 162   0.0000       0.842649        22.9296 
 163   0.0000       0.851861        23.1803 
 164   0.0000       0.859289        23.3824 
 165   0.0000       0.865257        23.5448 
 166   0.0000       0.871520        23.7153 
 167   0.0000       0.876954        23.8631 
 168   0.0000       0.883904        24.0522 
 169   0.0000       0.900653        24.5080 
 170   0.0000       0.905485        24.6395 
 171   0.0000       0.922403        25.0999 
 172   0.0000       0.939506        25.5653 
 173   0.0000       0.947055        25.7707 
 174   0.0000       0.968584        26.3565 
 175   0.0000       0.986179        26.8353 
 176   0.0000       0.995366        27.0853 
 177   0.0000       0.998018        27.1575 
 178   0.0000       1.019284        27.7361 
 179   0.0000       1.033339        28.1186 
 180   0.0000       1.065951        29.0060 
 181   0.0000       1.083143        29.4738 
 182   0.0000       1.086497        29.5651 
 183   0.0000       1.104957        30.0674 
 184   0.0000       1.118819        30.4446 
 185   0.0000       1.121177        30.5088 
 186   0.0000       1.150809        31.3151 
 187   0.0000       1.171827        31.8870 
 188   0.0000       1.185313        32.2540 
 189   0.0000       1.198615        32.6160 
 190   0.0000       1.218589        33.1595 
 191   0.0000       1.226363        33.3710 
 192   0.0000       1.250331        34.0232 
 193   0.0000       1.266903        34.4742 
 194   0.0000       1.275838        34.7173 
 195   0.0000       1.293635        35.2016 
 196   0.0000       1.310803        35.6688 
 197   0.0000       1.337306        36.3900 
 198   0.0000       1.348706        36.7002 
 199   0.0000       1.365668        37.1617 
 200   0.0000       1.408699        38.3326 
 201   0.0000       1.419833        38.6356 
 202   0.0000       1.439786        39.1786 
 203   0.0000       1.452813        39.5331 
 204   0.0000       1.464574        39.8531 
 205   0.0000       1.469367        39.9835 
 206   0.0000       1.479145        40.2496 
 207   0.0000       1.483563        40.3698 
 208   0.0000       1.547511        42.1099 
 209   0.0000       1.570009        42.7221 
 210   0.0000       1.590148        43.2701 
 211   0.0000       1.606907        43.7262 
 212   0.0000       1.622077        44.1390 
 213   0.0000       1.634006        44.4636 
 214   0.0000       1.647748        44.8375 
 215   0.0000       1.654038        45.0087 
 216   0.0000       1.678961        45.6869 
 217   0.0000       1.710609        46.5480 
 218   0.0000       1.743200        47.4349 
 219   0.0000       1.750653        47.6377 
 220   0.0000       1.771131        48.1949 
 221   0.0000       1.787853        48.6500 
 222   0.0000       1.796067        48.8735 
 223   0.0000       1.810776        49.2737 
 224   0.0000       1.816300        49.4240 
 225   0.0000       1.816806        49.4378 
 226   0.0000       1.837230        49.9936 
 227   0.0000       1.845021        50.2056 
 228   0.0000       1.851003        50.3683 
 229   0.0000       1.861693        50.6593 
 230   0.0000       1.870494        50.8987 
 231   0.0000       1.875583        51.0372 
 232   0.0000       1.885623        51.3104 
 233   0.0000       1.890991        51.4565 
 234   0.0000       1.897965        51.6462 
 235   0.0000       1.911813        52.0231 
 236   0.0000       1.917312        52.1727 
 237   0.0000       1.924097        52.3573 
 238   0.0000       1.934841        52.6497 
 239   0.0000       1.941236        52.8237 
 240   0.0000       1.951266        53.0967 
 241   0.0000       1.957237        53.2591 
 242   0.0000       1.961828        53.3841 
 243   0.0000       1.972545        53.6757 
 244   0.0000       1.988544        54.1110 
 245   0.0000       2.006647        54.6036 
 246   0.0000       2.009727        54.6874 
 247   0.0000       2.015928        54.8562 
 248   0.0000       2.023515        55.0626 
 249   0.0000       2.026547        55.1451 
 250   0.0000       2.053450        55.8772 
 251   0.0000       2.057796        55.9955 
 252   0.0000       2.071873        56.3785 
 253   0.0000       2.082076        56.6562 
 254   0.0000       2.096753        57.0555 
 255   0.0000       2.115217        57.5580 
 256   0.0000       2.119299        57.6691 
 257   0.0000       2.134816        58.0913 
 258   0.0000       2.139971        58.2316 
 259   0.0000       2.152457        58.5713 
 260   0.0000       2.160689        58.7953 
 261   0.0000       2.195630        59.7461 
 262   0.0000       2.197147        59.7874 
 263   0.0000       2.203781        59.9679 
 264   0.0000       2.213626        60.2358 
 265   0.0000       2.228002        60.6270 
 266   0.0000       2.248431        61.1829 
 267   0.0000       2.273642        61.8689 
 268   0.0000       2.299983        62.5857 
 269   0.0000       2.311367        62.8955 
 270   0.0000       2.336615        63.5825 
 271   0.0000       2.381573        64.8059 
 272   0.0000       2.389064        65.0097 
 273   0.0000       2.410876        65.6033 
 274   0.0000       2.419079        65.8265 
 275   0.0000       2.432882        66.2021 
 276   0.0000       2.443771        66.4984 
 277   0.0000       2.454381        66.7871 
 278   0.0000       2.465913        67.1009 
 279   0.0000       2.466685        67.1219 
 280   0.0000       2.485437        67.6322 
 281   0.0000       2.487535        67.6893 
 282   0.0000       2.496442        67.9316 
 283   0.0000       2.511014        68.3282 
 284   0.0000       2.537508        69.0491 
 285   0.0000       2.560889        69.6853 
 286   0.0000       2.578518        70.1651 
 287   0.0000       2.581102        70.2354 
 288   0.0000       2.605423        70.8972 
 289   0.0000       2.613193        71.1086 
 290   0.0000       2.641378        71.8756 
 291   0.0000       2.673339        72.7453 
 292   0.0000       2.690439        73.2106 
 293   0.0000       2.693871        73.3040 
 294   0.0000       2.716730        73.9260 
 295   0.0000       2.731292        74.3222 
 296   0.0000       2.753723        74.9326 
 297   0.0000       2.785123        75.7871 
 298   0.0000       2.807015        76.3828 
 299   0.0000       2.820400        76.7470 
 300   0.0000       2.848282        77.5057 
 301   0.0000       2.891811        78.6902 
 302   0.0000       2.896108        78.8071 
 303   0.0000       2.920311        79.4657 
 304   0.0000       2.954366        80.3924 
 305   0.0000       2.971454        80.8574 
 306   0.0000       2.990335        81.3712 
 307   0.0000       3.000131        81.6377 
 308   0.0000       3.022571        82.2483 
 309   0.0000       3.063132        83.3521 
 310   0.0000       3.069276        83.5192 
 311   0.0000       3.073518        83.6347 
 312   0.0000       3.101498        84.3961 
 313   0.0000       3.128992        85.1442 
 314   0.0000       3.162301        86.0506 
 315   0.0000       3.180128        86.5357 
 316   0.0000       3.188367        86.7599 
 317   0.0000       3.213408        87.4413 
 318   0.0000       3.252617        88.5082 
 319   0.0000       3.281309        89.2890 
 320   0.0000       3.344619        91.0117 
 321   0.0000       3.422808        93.1393 

                    ********************************
                    * MULLIKEN POPULATION ANALYSIS *
                    ********************************

-----------------------
MULLIKEN ATOMIC CHARGES
-----------------------
   0 S :    0.119161
   1 C :   -0.125557
   2 C :   -0.132858
   3 C :    0.014365
   4 C :   -0.158135
   5 H :    0.018789
   6 C :    0.164044
   7 H :    0.032443
   8 H :    0.002157
   9 C :   -0.144490
  10 H :    0.052965
  11 H :    0.048315
  12 C :   -0.047993
  13 H :    0.012295
  14 H :    0.022347
  15 H :    0.048362
  16 S :    0.104392
  17 C :   -0.085016
  18 C :   -0.037539
  19 C :   -0.035955
  20 C :   -0.136289
  21 H :    0.010622
  22 C :    0.064324
  23 H :    0.027740
  24 H :    0.029051
  25 C :   -0.101660
  26 H :    0.024519
  27 H :    0.028340
  28 C :   -0.007452
  29 H :    0.020616
  30 H :    0.019013
  31 H :    0.043181
  32 H :    0.055488
  33 H :    0.050415
Sum of atomic charges:    0.0000000

--------------------------------
MULLIKEN REDUCED ORBITAL CHARGES
--------------------------------
  0 S s       :     5.834556  s :     5.834556
      pz      :     3.597257  p :     9.932064
      px      :     3.289180
      py      :     3.045628
      dz2     :     0.015231  d :     0.114219
      dxz     :     0.018664
      dyz     :     0.018957
      dx2y2   :     0.039778
      dxy     :     0.021589
  1 C s       :     3.189860  s :     3.189860
      pz      :     1.082518  p :     2.903057
      px      :     0.869095
      py      :     0.951444
      dz2     :     0.003312  d :     0.032640
      dxz     :     0.006917
      dyz     :     0.004241
      dx2y2   :     0.010328
      dxy     :     0.007843
  2 C s       :     3.124599  s :     3.124599
      pz      :     1.007899  p :     2.965848
      px      :     1.004301
      py      :     0.953648
      dz2     :     0.003502  d :     0.042411
      dxz     :     0.007424
      dyz     :     0.006882
      dx2y2   :     0.011170
      dxy     :     0.013432
  3 C s       :     3.196449  s :     3.196449
      pz      :     1.013777  p :     2.756653
      px      :     0.907674
      py      :     0.835202
      dz2     :     0.003260  d :     0.032534
      dxz     :     0.006374
      dyz     :     0.003784
      dx2y2   :     0.011158
      dxy     :     0.007959
  4 C s       :     3.048945  s :     3.048945
      pz      :     1.084410  p :     3.062487
      px      :     1.017974
      py      :     0.960103
      dz2     :     0.004242  d :     0.046703
      dxz     :     0.008636
      dyz     :     0.006655
      dx2y2   :     0.014436
      dxy     :     0.012734
  5 H s       :     0.956375  s :     0.956375
      pz      :     0.006280  p :     0.024836
      px      :     0.004556
      py      :     0.014000
  6 C s       :     2.855832  s :     2.855832
      pz      :     1.014642  p :     2.942678
      px      :     0.935728
      py      :     0.992308
      dz2     :     0.005330  d :     0.037446
      dxz     :     0.006188
      dyz     :     0.010049
      dx2y2   :     0.009631
      dxy     :     0.006249
  7 H s       :     0.942423  s :     0.942423
      pz      :     0.012300  p :     0.025134
      px      :     0.005345
      py      :     0.007489
  8 H s       :     0.970542  s :     0.970542
      pz      :     0.012140  p :     0.027301
      px      :     0.007491
      py      :     0.007670
  9 C s       :     3.115300  s :     3.115300
      pz      :     1.004989  p :     2.995660
      px      :     0.982214
      py      :     1.008458
      dz2     :     0.006198  d :     0.033529
      dxz     :     0.003696
      dyz     :     0.008790
      dx2y2   :     0.008623
      dxy     :     0.006222
 10 H s       :     0.927513  s :     0.927513
      pz      :     0.011011  p :     0.019522
      px      :     0.003835
      py      :     0.004676
 11 H s       :     0.929285  s :     0.929285
      pz      :     0.010744  p :     0.022400
      px      :     0.004494
      py      :     0.007162
 12 C s       :     3.019727  s :     3.019727
      pz      :     1.021145  p :     3.001594
      px      :     0.956943
      py      :     1.023506
      dz2     :     0.005654  d :     0.026671
      dxz     :     0.004798
      dyz     :     0.005014
      dx2y2   :     0.004593
      dxy     :     0.006613
 13 H s       :     0.962458  s :     0.962458
      pz      :     0.012498  p :     0.025247
      px      :     0.004994
      py      :     0.007754
 14 H s       :     0.952729  s :     0.952729
      pz      :     0.006250  p :     0.024923
      px      :     0.005991
      py      :     0.012682
 15 H s       :     0.929832  s :     0.929832
      pz      :     0.009311  p :     0.021807
      px      :     0.004959
      py      :     0.007537
 16 S s       :     5.846844  s :     5.846844
      pz      :     3.583519  p :     9.937597
      px      :     3.023470
      py      :     3.330609
      dz2     :     0.012295  d :     0.111167
      dxz     :     0.027316
      dyz     :     0.013653
      dx2y2   :     0.029448
      dxy     :     0.028455
 17 C s       :     3.146260  s :     3.146260
      pz      :     1.041832  p :     2.904669
      px      :     0.953258
      py      :     0.909579
      dz2     :     0.005406  d :     0.034087
      dxz     :     0.005248
      dyz     :     0.005827
      dx2y2   :     0.008827
      dxy     :     0.008778
 18 C s       :     3.192781  s :     3.192781
      pz      :     0.982849  p :     2.810644
      px      :     0.943491
      py      :     0.884304
      dz2     :     0.004705  d :     0.034114
      dxz     :     0.006612
      dyz     :     0.004036
      dx2y2   :     0.008517
      dxy     :     0.010245
 19 C s       :     3.055842  s :     3.055842
      pz      :     1.000064  p :     2.937856
      px      :     0.959587
      py      :     0.978205
      dz2     :     0.006116  d :     0.042257
      dxz     :     0.007579
      dyz     :     0.007406
      dx2y2   :     0.011474
      dxy     :     0.009682
 20 C s       :     3.046180  s :     3.046180
      pz      :     1.069904  p :     3.044971
      px      :     0.933292
      py      :     1.041775
      dz2     :     0.006632  d :     0.045138
      dxz     :     0.008884
      dyz     :     0.006863
      dx2y2   :     0.010717
      dxy     :     0.012043
 21 H s       :     0.964320  s :     0.964320
      pz      :     0.006265  p :     0.025058
      px      :     0.004860
      py      :     0.013932
 22 C s       :     2.946505  s :     2.946505
      pz      :     0.963151  p :     2.951847
      px      :     1.034009
      py      :     0.954686
      dz2     :     0.007975  d :     0.037324
      dxz     :     0.007893
      dyz     :     0.009287
      dx2y2   :     0.002601
      dxy     :     0.009569
 23 H s       :     0.949156  s :     0.949156
      pz      :     0.004288  p :     0.023104
      px      :     0.008350
      py      :     0.010466
 24 H s       :     0.948161  s :     0.948161
      pz      :     0.007114  p :     0.022788
      px      :     0.006146
      py      :     0.009528
 25 C s       :     3.048318  s :     3.048318
      pz      :     0.993862  p :     3.014435
      px      :     1.020970
      py      :     0.999603
      dz2     :     0.008497  d :     0.038908
      dxz     :     0.007427
      dyz     :     0.008594
      dx2y2   :     0.003297
      dxy     :     0.011094
 26 H s       :     0.953020  s :     0.953020
      pz      :     0.003859  p :     0.022461
      px      :     0.008159
      py      :     0.010442
 27 H s       :     0.948455  s :     0.948455
      pz      :     0.006754  p :     0.023204
      px      :     0.006747
      py      :     0.009703
 28 C s       :     2.981555  s :     2.981555
      pz      :     1.002566  p :     2.997100
      px      :     0.994205
      py      :     1.000329
      dz2     :     0.002235  d :     0.028797
      dxz     :     0.007258
      dyz     :     0.008518
      dx2y2   :     0.002547
      dxy     :     0.008239
 29 H s       :     0.953966  s :     0.953966
      pz      :     0.008743  p :     0.025418
      px      :     0.007409
      py      :     0.009266
 30 H s       :     0.955029  s :     0.955029
      pz      :     0.010719  p :     0.025958
      px      :     0.007018
      py      :     0.008221
 31 H s       :     0.934259  s :     0.934259
      pz      :     0.006095  p :     0.022560
      px      :     0.007039
      py      :     0.009426
 32 H s       :     0.920182  s :     0.920182
      pz      :     0.006419  p :     0.024331
      px      :     0.004276
      py      :     0.013636
 33 H s       :     0.924912  s :     0.924912
      pz      :     0.005972  p :     0.024673
      px      :     0.013811
      py      :     0.004889


                     *******************************
                     * LOEWDIN POPULATION ANALYSIS *
                     *******************************

----------------------
LOEWDIN ATOMIC CHARGES
----------------------
   0 S :    0.417680
   1 C :   -0.218838
   2 C :   -0.051546
   3 C :   -0.072466
   4 C :   -0.203409
   5 H :    0.034108
   6 C :   -0.024478
   7 H :    0.035876
   8 H :    0.019787
   9 C :   -0.036931
  10 H :    0.036563
  11 H :    0.024483
  12 C :   -0.075328
  13 H :    0.021068
  14 H :    0.021497
  15 H :    0.030879
  16 S :    0.417119
  17 C :   -0.183597
  18 C :   -0.064238
  19 C :   -0.059073
  20 C :   -0.201642
  21 H :    0.027173
  22 C :   -0.041538
  23 H :    0.033405
  24 H :    0.031602
  25 C :   -0.044693
  26 H :    0.023398
  27 H :    0.023227
  28 C :   -0.051355
  29 H :    0.020328
  30 H :    0.021873
  31 H :    0.030795
  32 H :    0.032171
  33 H :    0.026097

-------------------------------
LOEWDIN REDUCED ORBITAL CHARGES
-------------------------------
  0 S s       :     5.482876  s :     5.482876
      pz      :     3.562701  p :     9.956499
      px      :     3.318569
      py      :     3.075229
      dz2     :     0.018740  d :     0.142945
      dxz     :     0.021905
      dyz     :     0.022671
      dx2y2   :     0.052704
      dxy     :     0.026926
  1 C s       :     2.933003  s :     2.933003
      pz      :     1.107643  p :     3.207789
      px      :     1.021734
      py      :     1.078412
      dz2     :     0.006685  d :     0.078046
      dxz     :     0.014606
      dyz     :     0.008097
      dx2y2   :     0.026363
      dxy     :     0.022295
  2 C s       :     2.874928  s :     2.874928
      pz      :     0.980634  p :     3.073688
      px      :     1.045189
      py      :     1.047865
      dz2     :     0.007742  d :     0.102930
      dxz     :     0.013346
      dyz     :     0.014221
      dx2y2   :     0.029438
      dxy     :     0.038183
  3 C s       :     2.878611  s :     2.878611
      pz      :     1.032167  p :     3.108982
      px      :     1.038512
      py      :     1.038302
      dz2     :     0.007110  d :     0.084873
      dxz     :     0.014081
      dyz     :     0.007529
      dx2y2   :     0.031554
      dxy     :     0.024600
  4 C s       :     2.898754  s :     2.898754
      pz      :     1.067635  p :     3.192117
      px      :     1.105436
      py      :     1.019045
      dz2     :     0.008941  d :     0.112539
      dxz     :     0.018318
      dyz     :     0.013407
      dx2y2   :     0.038580
      dxy     :     0.033293
  5 H s       :     0.894433  s :     0.894433
      pz      :     0.018098  p :     0.071459
      px      :     0.013559
      py      :     0.039802
  6 C s       :     2.794513  s :     2.794513
      pz      :     1.078482  p :     3.133204
      px      :     1.013039
      py      :     1.041683
      dz2     :     0.015372  d :     0.096761
      dxz     :     0.014943
      dyz     :     0.023830
      dx2y2   :     0.026329
      dxy     :     0.016288
  7 H s       :     0.890819  s :     0.890819
      pz      :     0.033008  p :     0.073305
      px      :     0.016557
      py      :     0.023740
  8 H s       :     0.897226  s :     0.897226
      pz      :     0.034401  p :     0.082987
      px      :     0.023835
      py      :     0.024751
  9 C s       :     2.858233  s :     2.858233
      pz      :     1.053704  p :     3.099276
      px      :     1.007321
      py      :     1.038251
      dz2     :     0.016362  d :     0.079422
      dxz     :     0.007077
      dyz     :     0.021324
      dx2y2   :     0.020804
      dxy     :     0.013855
 10 H s       :     0.906814  s :     0.906814
      pz      :     0.030318  p :     0.056622
      px      :     0.012190
      py      :     0.014114
 11 H s       :     0.905228  s :     0.905228
      pz      :     0.032410  p :     0.070290
      px      :     0.015624
      py      :     0.022256
 12 C s       :     2.848607  s :     2.848607
      pz      :     1.074324  p :     3.161443
      px      :     1.003526
      py      :     1.083594
      dz2     :     0.014637  d :     0.065278
      dxz     :     0.009690
      dyz     :     0.012905
      dx2y2   :     0.013146
      dxy     :     0.014900
 13 H s       :     0.907824  s :     0.907824
      pz      :     0.034964  p :     0.071108
      px      :     0.016517
      py      :     0.019627
 14 H s       :     0.905463  s :     0.905463
      pz      :     0.017198  p :     0.073040
      px      :     0.020143
      py      :     0.035698
 15 H s       :     0.908108  s :     0.908108
      pz      :     0.024319  p :     0.061012
      px      :     0.015895
      py      :     0.020798
 16 S s       :     5.501056  s :     5.501056
      pz      :     3.559430  p :     9.944512
      px      :     3.037900
      py      :     3.347182
      dz2     :     0.014368  d :     0.137313
      dxz     :     0.034604
      dyz     :     0.014686
      dx2y2   :     0.037684
      dxy     :     0.035971
 17 C s       :     2.935384  s :     2.935384
      pz      :     1.073776  p :     3.168584
      px      :     1.071121
      py      :     1.023687
      dz2     :     0.010574  d :     0.079629
      dxz     :     0.012336
      dyz     :     0.013766
      dx2y2   :     0.020921
      dxy     :     0.022032
 18 C s       :     2.868376  s :     2.868376
      pz      :     1.020763  p :     3.107041
      px      :     1.039531
      py      :     1.046747
      dz2     :     0.009790  d :     0.088821
      dxz     :     0.016182
      dyz     :     0.010405
      dx2y2   :     0.023577
      dxy     :     0.028866
 19 C s       :     2.862250  s :     2.862250
      pz      :     1.010765  p :     3.091729
      px      :     1.040253
      py      :     1.040712
      dz2     :     0.013060  d :     0.105094
      dxz     :     0.017265
      dyz     :     0.018441
      dx2y2   :     0.030683
      dxy     :     0.025646
 20 C s       :     2.895148  s :     2.895148
      pz      :     1.093188  p :     3.195735
      px      :     1.016203
      py      :     1.086344
      dz2     :     0.013707  d :     0.110758
      dxz     :     0.019678
      dyz     :     0.016581
      dx2y2   :     0.028862
      dxy     :     0.031929
 21 H s       :     0.898802  s :     0.898802
      pz      :     0.018708  p :     0.074024
      px      :     0.016416
      py      :     0.038900
 22 C s       :     2.821716  s :     2.821716
      pz      :     1.038686  p :     3.124849
      px      :     1.050625
      py      :     1.035539
      dz2     :     0.019448  d :     0.094973
      dxz     :     0.020041
      dyz     :     0.024246
      dx2y2   :     0.005808
      dxy     :     0.025430
 23 H s       :     0.900127  s :     0.900127
      pz      :     0.013156  p :     0.066468
      px      :     0.024527
      py      :     0.028785
 24 H s       :     0.901129  s :     0.901129
      pz      :     0.020973  p :     0.067269
      px      :     0.019010
      py      :     0.027286
 25 C s       :     2.824115  s :     2.824115
      pz      :     1.036169  p :     3.125563
      px      :     1.044401
      py      :     1.044993
      dz2     :     0.020023  d :     0.095015
      dxz     :     0.018824
      dyz     :     0.021205
      dx2y2   :     0.007230
      dxy     :     0.027734
 26 H s       :     0.911891  s :     0.911891
      pz      :     0.012727  p :     0.064711
      px      :     0.023365
      py      :     0.028620
 27 H s       :     0.906848  s :     0.906848
      pz      :     0.021552  p :     0.069925
      px      :     0.021157
      py      :     0.027217
 28 C s       :     2.822614  s :     2.822614
      pz      :     1.057613  p :     3.155613
      px      :     1.045347
      py      :     1.052653
      dz2     :     0.005083  d :     0.073129
      dxz     :     0.019216
      dyz     :     0.022016
      dx2y2   :     0.005508
      dxy     :     0.021306
 29 H s       :     0.907464  s :     0.907464
      pz      :     0.024181  p :     0.072207
      px      :     0.021539
      py      :     0.026487
 30 H s       :     0.904586  s :     0.904586
      pz      :     0.029767  p :     0.073541
      px      :     0.020679
      py      :     0.023095
 31 H s       :     0.906792  s :     0.906792
      pz      :     0.016561  p :     0.062413
      px      :     0.020109
      py      :     0.025743
 32 H s       :     0.892231  s :     0.892231
      pz      :     0.020629  p :     0.075597
      px      :     0.015812
      py      :     0.039156
 33 H s       :     0.897078  s :     0.897078
      pz      :     0.018800  p :     0.076825
      px      :     0.040027
      py      :     0.017998


                      *****************************
                      * MAYER POPULATION ANALYSIS *
                      *****************************

  NA   - Mulliken gross atomic population
  ZA   - Total nuclear charge
  QA   - Mulliken gross atomic charge
  VA   - Mayer's total valence
  BVA  - Mayer's bonded valence
  FA   - Mayer's free valence

  ATOM       NA         ZA         QA         VA         BVA        FA
  0 S     15.8808    16.0000     0.1192     2.4878     2.4878     0.0000
  1 C      6.1256     6.0000    -0.1256     3.8342     3.8342     0.0000
  2 C      6.1329     6.0000    -0.1329     3.9918     3.9918     0.0000
  3 C      5.9856     6.0000     0.0144     3.9118     3.9118     0.0000
  4 C      6.1581     6.0000    -0.1581     3.9421     3.9421     0.0000
  5 H      0.9812     1.0000     0.0188     1.0079     1.0079     0.0000
  6 C      5.8360     6.0000     0.1640     3.9263     3.9263     0.0000
  7 H      0.9676     1.0000     0.0324     0.9908     0.9908    -0.0000
  8 H      0.9978     1.0000     0.0022     0.9982     0.9982     0.0000
  9 C      6.1445     6.0000    -0.1445     4.1252     4.1252    -0.0000
 10 H      0.9470     1.0000     0.0530     0.9690     0.9690    -0.0000
 11 H      0.9517     1.0000     0.0483     0.9757     0.9757    -0.0000
 12 C      6.0480     6.0000    -0.0480     3.9886     3.9886    -0.0000
 13 H      0.9877     1.0000     0.0123     0.9858     0.9858    -0.0000
 14 H      0.9777     1.0000     0.0223     0.9880     0.9880     0.0000
 15 H      0.9516     1.0000     0.0484     0.9898     0.9898     0.0000
 16 S     15.8956    16.0000     0.1044     2.5037     2.5037     0.0000
 17 C      6.0850     6.0000    -0.0850     3.8499     3.8499     0.0000
 18 C      6.0375     6.0000    -0.0375     3.9588     3.9588     0.0000
 19 C      6.0360     6.0000    -0.0360     3.9936     3.9936     0.0000
 20 C      6.1363     6.0000    -0.1363     3.9209     3.9209     0.0000
 21 H      0.9894     1.0000     0.0106     0.9983     0.9983    -0.0000
 22 C      5.9357     6.0000     0.0643     3.9802     3.9802    -0.0000
 23 H      0.9723     1.0000     0.0277     0.9926     0.9926    -0.0000
 24 H      0.9709     1.0000     0.0291     0.9833     0.9833    -0.0000
 25 C      6.1017     6.0000    -0.1017     4.1153     4.1153     0.0000
 26 H      0.9755     1.0000     0.0245     0.9740     0.9740    -0.0000
 27 H      0.9717     1.0000     0.0283     0.9804     0.9804     0.0000
 28 C      6.0075     6.0000    -0.0075     4.0026     4.0026     0.0000
 29 H      0.9794     1.0000     0.0206     0.9967     0.9967     0.0000
 30 H      0.9810     1.0000     0.0190     0.9892     0.9892    -0.0000
 31 H      0.9568     1.0000     0.0432     0.9896     0.9896    -0.0000
 32 H      0.9445     1.0000     0.0555     1.0086     1.0086     0.0000
 33 H      0.9496     1.0000     0.0504     0.9970     0.9970     0.0000

  Mayer bond orders larger than 0.100000
B(  0-S ,  1-C ) :   1.1254 B(  0-S ,  4-C ) :   1.1494 B(  1-C ,  2-C ) :   1.6059 
B(  1-C , 32-H ) :   0.9642 B(  2-C ,  3-C ) :   1.2281 B(  2-C ,  6-C ) :   1.0094 
B(  3-C ,  4-C ) :   1.5719 B(  3-C ,  5-H ) :   0.9868 B(  4-C , 20-C ) :   1.0723 
B(  6-C ,  7-H ) :   0.9264 B(  6-C ,  8-H ) :   0.9314 B(  6-C ,  9-C ) :   1.0886 
B(  9-C , 10-H ) :   0.9495 B(  9-C , 11-H ) :   0.9567 B(  9-C , 12-C ) :   1.0771 
B( 12-C , 13-H ) :   0.9727 B( 12-C , 14-H ) :   0.9731 B( 12-C , 15-H ) :   0.9772 
B( 16-S , 17-C ) :   1.1530 B( 16-S , 20-C ) :   1.1443 B( 17-C , 18-C ) :   1.6094 
B( 17-C , 33-H ) :   0.9679 B( 18-C , 19-C ) :   1.2365 B( 18-C , 21-H ) :   0.9952 
B( 19-C , 20-C ) :   1.5699 B( 19-C , 22-C ) :   1.0357 B( 22-C , 23-H ) :   0.9347 
B( 22-C , 24-H ) :   0.9189 B( 22-C , 25-C ) :   1.0965 B( 25-C , 26-H ) :   0.9439 
B( 25-C , 27-H ) :   0.9525 B( 25-C , 28-C ) :   1.0866 B( 28-C , 29-H ) :   0.9718 
B( 28-C , 30-H ) :   0.9735 B( 28-C , 31-H ) :   0.9753 

-------
TIMINGS
-------

Total SCF time: 0 days 0 hours 0 min 18 sec 

Total time                  ....      18.935 sec
Sum of individual times     ....      18.062 sec  ( 95.4%)

Fock matrix formation       ....      16.400 sec  ( 86.6%)
  XC integration            ....       1.528 sec  (  9.3% of F)
    Basis function eval.    ....       0.142 sec  (  9.3% of XC)
    Density eval.           ....       0.097 sec  (  6.4% of XC)
    XC-Functional eval.     ....       0.119 sec  (  7.8% of XC)
    XC-Potential eval.      ....       0.111 sec  (  7.3% of XC)
Diagonalization             ....       0.135 sec  (  0.7%)
Density matrix formation    ....       0.025 sec  (  0.1%)
Population analysis         ....       0.055 sec  (  0.3%)
Initial guess               ....       0.171 sec  (  0.9%)
Orbital Transformation      ....       0.000 sec  (  0.0%)
Orbital Orthonormalization  ....       0.000 sec  (  0.0%)
DIIS solution               ....       0.161 sec  (  0.9%)
SOSCF solution              ....       0.124 sec  (  0.7%)
Grid generation             ....       0.992 sec  (  5.2%)


-------------------------------------------------------------------------------
                          DFT DISPERSION CORRECTION                            
                                                                               
                              DFTD3 V3.1  Rev 1                                
                              USING zero damping                               
-------------------------------------------------------------------------------
The omegaB97X-D3 functional is recognized. Fit by Chai et al.
Active option DFTDOPT                   ...         3   

molecular C6(AA) [au] = 14185.580543 


            DFT-D V3
 parameters
 s6 scaling factor         :     1.0000 
 rs6 scaling factor        :     1.2810 
 s8 scaling factor         :     1.0000 
 rs8 scaling factor        :     1.0940 
 Damping factor alpha6     :    14.0000 
 Damping factor alpha8     :    16.0000 
 ad hoc parameters k1-k3   :    16.0000     1.3333    -4.0000 

 Edisp/kcal,au: -8.229859844974  -0.013115115082 
 E6   /kcal   :  -3.629951548 
 E8   /kcal   :  -4.599908297 
 % E8         :  55.892911708 

-------------------------   ----------------
Dispersion correction           -0.013115115
-------------------------   ----------------


-------------------------   --------------------
FINAL SINGLE POINT ENERGY     -1339.856843624920
-------------------------   --------------------


                            ***************************************
                            *     ORCA property calculations      *
                            ***************************************

                                    ---------------------
                                    Active property flags
                                    ---------------------
   (+) Dipole Moment


------------------------------------------------------------------------------
                       ORCA ELECTRIC PROPERTIES CALCULATION
------------------------------------------------------------------------------

Dipole Moment Calculation                       ... on
Quadrupole Moment Calculation                   ... off
Polarizability Calculation                      ... off
GBWName                                         ... config_489.gbw
Electron density file                           ... config_489.scfp
The origin for moment calculation is the CENTER OF MASS  = (-98.417121, -5.542204 -34.855334)

-------------
DIPOLE MOMENT
-------------
                                X             Y             Z
Electronic contribution:     25.11204      -8.69099      -8.18674
Nuclear contribution   :    -25.59799       9.16799       8.30495
                        -----------------------------------------
Total Dipole Moment    :     -0.48595       0.47700       0.11821
                        -----------------------------------------
Magnitude (a.u.)       :      0.69112
Magnitude (Debye)      :      1.75669



--------------------
Rotational spectrum 
--------------------
 
Rotational constants in cm-1:     0.019352     0.007456     0.005717 
Rotational constants in MHz :   580.161601   223.528835   171.378189 

 Dipole components along the rotational axes: 
x,y,z [a.u.] :     0.020034    -0.644480     0.248778 
x,y,z [Debye]:     0.050922    -1.638138     0.632344 

 

Timings for individual modules:

Sum of individual times         ...       20.108 sec (=   0.335 min)
GTO integral calculation        ...        0.797 sec (=   0.013 min)   4.0 %
SCF iterations                  ...       19.312 sec (=   0.322 min)  96.0 %
                             ****ORCA TERMINATED NORMALLY****
TOTAL RUN TIME: 0 days 0 hours 0 minutes 20 seconds 819 msec
