
                                 *****************
                                 * O   R   C   A *
                                 *****************

           --- An Ab Initio, DFT and Semiempirical electronic structure package ---

                  #######################################################
                  #                        -***-                        #
                  #          Department of theory and spectroscopy      #
                  #               Directorship: Frank Neese             #
                  #        Max Planck Institute fuer Kohlenforschung    #
                  #                Kaiser Wilhelm Platz 1               #
                  #                 D-45470 Muelheim/Ruhr               #
                  #                      Germany                        #
                  #                                                     #
                  #                  All rights reserved                #
                  #                        -***-                        #
                  #######################################################


                         Program Version 4.2.1 -  RELEASE  -


 With contributions from (in alphabetic order):
   Daniel Aravena         : Magnetic Suceptibility
   Michael Atanasov       : Ab Initio Ligand Field Theory (pilot matlab implementation)
   Alexander A. Auer      : GIAO ZORA, VPT2
   Ute Becker             : Parallelization
   Giovanni Bistoni       : ED, misc. LED, open-shell LED, HFLD
   Martin Brehm           : Molecular dynamics
   Dmytro Bykov           : SCF Hessian
   Vijay G. Chilkuri      : MRCI spin determinant printing, contributions to CSF-ICE
   Dipayan Datta          : RHF DLPNO-CCSD density
   Achintya Kumar Dutta   : EOM-CC, STEOM-CC
   Dmitry Ganyushin       : Spin-Orbit,Spin-Spin,Magnetic field MRCI
   Miquel Garcia          : C-PCM Hessian, Gaussian charge scheme
   Yang Guo               : DLPNO-NEVPT2, CIM, IAO-localization
   Andreas Hansen         : Spin unrestricted coupled pair/coupled cluster methods
   Benjamin Helmich-Paris : CASSCF linear response (MC-RPA)
   Lee Huntington         : MR-EOM, pCC
   Robert Izsak           : Overlap fitted RIJCOSX, COSX-SCS-MP3, EOM
   Christian Kollmar      : KDIIS, OOCD, Brueckner-CCSD(T), CCSD density
   Simone Kossmann        : Meta GGA functionals, TD-DFT gradient, OOMP2, MP2 Hessian
   Martin Krupicka        : AUTO-CI
   Lucas Lang             : DCDCAS
   Dagmar Lenk            : GEPOL surface, SMD
   Dimitrios Liakos       : Extrapolation schemes; Compound Job, initial MDCI parallelization
   Dimitrios Manganas     : Further ROCIS development; embedding schemes
   Dimitrios Pantazis     : SARC Basis sets
   Taras Petrenko         : DFT Hessian,TD-DFT gradient, ASA, ECA, R-Raman, ABS, FL, XAS/XES, NRVS
   Peter Pinski           : DLPNO-MP2, DLPNO-MP2 Gradient
   Christoph Reimann      : Effective Core Potentials
   Marius Retegan         : Local ZFS, SOC
   Christoph Riplinger    : Optimizer, TS searches, QM/MM, DLPNO-CCSD(T), (RO)-DLPNO pert. Triples
   Tobias Risthaus        : Range-separated hybrids, TD-DFT gradient, RPA, STAB
   Michael Roemelt        : Original ROCIS implementation
   Masaaki Saitow         : Open-shell DLPNO-CCSD energy and density
   Barbara Sandhoefer     : DKH picture change effects
   Avijit Sen             : IP-ROCIS
   Kantharuban Sivalingam : CASSCF convergence, NEVPT2, FIC-MRCI
   Bernardo de Souza      : ESD, SOC TD-DFT
   Georgi Stoychev        : AutoAux, RI-MP2 NMR
   Willem Van den Heuvel  : Paramagnetic NMR
   Boris Wezisla          : Elementary symmetry handling
   Frank Wennmohs         : Technical directorship


 We gratefully acknowledge several colleagues who have allowed us to
 interface, adapt or use parts of their codes:
   Stefan Grimme, W. Hujo, H. Kruse,             : VdW corrections, initial TS optimization,
                  C. Bannwarth                     DFT functionals, gCP, sTDA/sTD-DF
   Ed Valeev, F. Pavosevic, A. Kumar             : LibInt (2-el integral package), F12 methods
   Garnet Chan, S. Sharma, J. Yang, R. Olivares  : DMRG
   Ulf Ekstrom                                   : XCFun DFT Library
   Mihaly Kallay                                 : mrcc  (arbitrary order and MRCC methods)
   Andreas Klamt, Michael Diedenhofen            : otool_cosmo (COSMO solvation model)
   Jiri Pittner, Ondrej Demel                    : Mk-CCSD
   Frank Weinhold                                : gennbo (NPA and NBO analysis)
   Christopher J. Cramer and Donald G. Truhlar   : smd solvation model
   Lars Goerigk                                  : TD-DFT with DH, B97 family of functionals
   V. Asgeirsson, H. Jonsson                     : NEB implementation
   FAccTs GmbH                                   : IRC, NEB, NEB-TS, Multilevel, MM, QM/MM, CI optimization
   S Lehtola, MJT Oliveira, MAL Marques          : LibXC Library


 Your calculation uses the libint2 library for the computation of 2-el integrals
 For citations please refer to: http://libint.valeyev.net

 Your ORCA version has been built with support for libXC version: 4.2.3
 For citations please refer to: https://tddft.org/programs/libxc/

 This ORCA versions uses:
   CBLAS   interface :  Fast vector & matrix operations
   LAPACKE interface :  Fast linear algebra routines
   SCALAPACK package :  Parallel linear algebra routines


Your calculation utilizes the atom-pairwise dispersion correction
with the zero-damping scheme (D30)
Cite in your paper:
S.Grimme, J.Antony, S.Ehrlich and H.Krieg, J.Chem.Phys., 132, (2010), 154104 
   

XCFun DFT library Copyright 2009-2010 Ulf Ekstrom and contributors.
See http://admol.org/xcfun for more information. This is free soft-
ware; see the source code for copying conditions. There is ABSOLUTELY
NO WARRANTY; not even for MERCHANTABILITY or FITNESS FOR A PARTICULAR
PURPOSE. For details see the documentation. Scientific users of this 
library should cite U. Ekstrom, L. Visscher, R. Bast, A. J. Thorvald-
sen and K. Ruud; J.Chem.Theor.Comp. 2010, DOI: 10.1021/ct100117s
XCFun Version 0.99 
----- Orbital basis set information -----
Your calculation utilizes the basis: def2-SVP
   F. Weigend and R. Ahlrichs, Phys. Chem. Chem. Phys. 7, 3297 (2005).

================================================================================
                                        WARNINGS
                       Please study these warnings very carefully!
================================================================================


INFO   : the flag for use of LIBINT has been found!

================================================================================
                                       INPUT FILE
================================================================================
NAME = config_1382.inp
|  1> ! wB97X-D3 SP def2-SVP
|  2> %pal
|  3> nprocs 24
|  4> end
|  5> 
|  6> * xyz 0 1
|  7> S 	 -49.1402 	 19.4085 	 31.2198 	 
|  8> C 	 -48.7993 	 18.0977 	 30.123 	 
|  9> C 	 -48.8477 	 18.5025 	 28.7875 	 
| 10> C 	 -49.2351 	 19.8866 	 28.6734 	 
| 11> C 	 -49.3415 	 20.5824 	 29.9083 	 
| 12> H 	 -49.4475 	 20.3881 	 27.743 	 
| 13> C 	 -48.477 	 17.69 	 27.6136 	 
| 14> H 	 -47.5186 	 17.2784 	 27.8052 	 
| 15> H 	 -48.2871 	 18.3919 	 26.8224 	 
| 16> C 	 -49.4551 	 16.5843 	 27.3379 	 
| 17> H 	 -49.1322 	 15.8864 	 26.5499 	 
| 18> H 	 -49.3941 	 15.931 	 28.2512 	 
| 19> C 	 -50.9233 	 16.9923 	 27.0818 	 
| 20> H 	 -50.8696 	 17.7497 	 26.3272 	 
| 21> H 	 -51.7291 	 16.1618 	 26.9041 	 
| 22> H 	 -51.3118 	 17.5371 	 27.8896 	 
| 23> S 	 -51.4349 	 22.485 	 30.4723 	 
| 24> C 	 -50.9583 	 24.1205 	 30.3704 	 
| 25> C 	 -49.5659 	 24.2696 	 30.3982 	 
| 26> C 	 -48.873 	 23.0736 	 30.297 	 
| 27> C 	 -49.7299 	 22.0149 	 30.1616 	 
| 28> H 	 -49.1453 	 25.2239 	 30.5161 	 
| 29> C 	 -47.3792 	 23.0407 	 30.1419 	 
| 30> H 	 -47.1251 	 23.7835 	 29.3928 	 
| 31> H 	 -47.1555 	 22.1997 	 29.6241 	 
| 32> C 	 -46.5043 	 23.0871 	 31.414 	 
| 33> H 	 -45.5479 	 22.6136 	 31.1255 	 
| 34> H 	 -46.9657 	 22.4575 	 32.1068 	 
| 35> C 	 -46.2499 	 24.4679 	 31.9415 	 
| 36> H 	 -47.029 	 25.1193 	 32.2478 	 
| 37> H 	 -45.8395 	 25.0448 	 31.0858 	 
| 38> H 	 -45.5169 	 24.355 	 32.6978 	 
| 39> H 	 -48.3729 	 17.0855 	 30.2754 	 
| 40> H 	 -51.5407 	 24.9967 	 30.6117 	 
| 41> *
| 42> 
| 43>                          ****END OF INPUT****
================================================================================

                       ****************************
                       * Single Point Calculation *
                       ****************************

---------------------------------
CARTESIAN COORDINATES (ANGSTROEM)
---------------------------------
  S    -49.140200   19.408500   31.219800
  C    -48.799300   18.097700   30.123000
  C    -48.847700   18.502500   28.787500
  C    -49.235100   19.886600   28.673400
  C    -49.341500   20.582400   29.908300
  H    -49.447500   20.388100   27.743000
  C    -48.477000   17.690000   27.613600
  H    -47.518600   17.278400   27.805200
  H    -48.287100   18.391900   26.822400
  C    -49.455100   16.584300   27.337900
  H    -49.132200   15.886400   26.549900
  H    -49.394100   15.931000   28.251200
  C    -50.923300   16.992300   27.081800
  H    -50.869600   17.749700   26.327200
  H    -51.729100   16.161800   26.904100
  H    -51.311800   17.537100   27.889600
  S    -51.434900   22.485000   30.472300
  C    -50.958300   24.120500   30.370400
  C    -49.565900   24.269600   30.398200
  C    -48.873000   23.073600   30.297000
  C    -49.729900   22.014900   30.161600
  H    -49.145300   25.223900   30.516100
  C    -47.379200   23.040700   30.141900
  H    -47.125100   23.783500   29.392800
  H    -47.155500   22.199700   29.624100
  C    -46.504300   23.087100   31.414000
  H    -45.547900   22.613600   31.125500
  H    -46.965700   22.457500   32.106800
  C    -46.249900   24.467900   31.941500
  H    -47.029000   25.119300   32.247800
  H    -45.839500   25.044800   31.085800
  H    -45.516900   24.355000   32.697800
  H    -48.372900   17.085500   30.275400
  H    -51.540700   24.996700   30.611700

----------------------------
CARTESIAN COORDINATES (A.U.)
----------------------------
  NO LB      ZA    FRAG     MASS         X           Y           Z
   0 S    16.0000    0    32.060  -92.861520   36.676750   58.996872
   1 C     6.0000    0    12.011  -92.217313   34.199697   56.924220
   2 C     6.0000    0    12.011  -92.308775   34.964658   54.400491
   3 C     6.0000    0    12.011  -93.040855   37.580228   54.184873
   4 C     6.0000    0    12.011  -93.241922   38.895099   56.518496
   5 H     1.0000    0     1.008  -93.442233   38.527925   52.426672
   6 C     6.0000    0    12.011  -91.608254   33.429255   52.182142
   7 H     1.0000    0     1.008  -89.797140   32.651444   52.544213
   8 H     1.0000    0     1.008  -91.249395   34.755654   50.686990
   9 C     6.0000    0    12.011  -93.456595   31.339785   51.661144
  10 H     1.0000    0     1.008  -92.846402   30.020945   50.172040
  11 H     1.0000    0     1.008  -93.341322   30.105227   53.387031
  12 C     6.0000    0    12.011  -96.231091   32.110793   51.177185
  13 H     1.0000    0     1.008  -96.129613   33.542072   49.751198
  14 H     1.0000    0     1.008  -97.753832   30.541376   50.841381
  15 H     1.0000    0     1.008  -96.965249   33.140316   52.703706
  16 S    16.0000    0    32.060  -97.197875   42.490492   57.584302
  17 C     6.0000    0    12.011  -96.297231   45.581139   57.391739
  18 C     6.0000    0    12.011  -93.665977   45.862897   57.444273
  19 C     6.0000    0    12.011  -92.356585   43.602785   57.253033
  20 C     6.0000    0    12.011  -93.975892   41.602132   56.997164
  21 H     1.0000    0     1.008  -92.871158   47.666263   57.667072
  22 C     6.0000    0    12.011  -89.533712   43.540613   56.959936
  23 H     1.0000    0     1.008  -89.053533   44.944302   55.544342
  24 H     1.0000    0     1.008  -89.110981   41.951353   55.981436
  25 C     6.0000    0    12.011  -87.880391   43.628296   59.363857
  26 H     1.0000    0     1.008  -86.073057   42.733511   58.818671
  27 H     1.0000    0     1.008  -88.752311   42.438525   60.673059
  28 C     6.0000    0    12.011  -87.399645   46.237630   60.360687
  29 H     1.0000    0     1.008  -88.871930   47.468598   60.939510
  30 H     1.0000    0     1.008  -86.624101   47.327813   58.743649
  31 H     1.0000    0     1.008  -86.014475   46.024280   61.789887
  32 H     1.0000    0     1.008  -91.411533   32.286916   57.212215
  33 H     1.0000    0     1.008  -97.397808   47.236917   57.847729

--------------------------------
INTERNAL COORDINATES (ANGSTROEM)
--------------------------------
 S      0   0   0     0.000000000000     0.00000000     0.00000000
 C      1   0   0     1.742807989998     0.00000000     0.00000000
 C      2   1   0     1.396340162711   112.15345963     0.00000000
 C      3   2   1     1.441814960388   111.30286262   357.06432315
 C      4   3   2     1.421420630918   114.91518096     6.53778003
 H      4   3   2     1.078081708406   124.59621385   187.23675293
 C      3   2   1     1.474996932200   126.35499713   173.28733055
 H      7   3   2     1.060497845354   107.28548441   309.85236382
 H      7   3   2     1.074580411137   105.69960170   200.32628123
 C      7   3   2     1.501753172129   112.82989337    70.70386751
 H     10   7   3     1.101032615321   114.02126401   187.56279639
 H     10   7   3     1.124561594578   104.08154752   297.09076112
 C     10   7   3     1.545206280728   117.05638630    58.50303374
 H     13  10   7     1.070495030348   104.83181579    51.09795239
 H     13  10   7     1.170735315945   119.46116986   182.38244963
 H     13  10   7     1.048942386406   111.18725004   302.56583126
 S      5   4   3     2.884494118559   123.16656748   219.91958538
 C     17   5   4     1.706573004591   114.69390045   257.25431201
 C     18  17   5     1.400636073361   112.23857742   343.29747197
 C     19  18  17     1.385917692361   113.80995129     9.24797373
 C     20  19  18     1.368742656601   111.20559298     1.37384081
 H     19  18  17     1.049520490510   119.82952904   190.95010344
 C     20  19  18     1.502190686964   121.57433686   172.51270243
 H     23  20  19     1.085112648530   106.80685562   314.79688798
 H     23  20  19     1.012639881695   106.89735862   209.09903703
 C     23  20  19     1.544616903960   118.52643030    85.94513282
 H     26  23  20     1.105502356397   105.20259855   155.47984928
 H     26  23  20     1.043675217680   106.15052412    41.93590619
 C     26  23  20     1.499861410264   114.41718439   276.11502595
 H     29  26  23     1.060725440442   122.84274541    59.87471808
 H     29  26  23     1.110614361513   105.65891822   306.47437521
 H     29  26  23     1.059256862144   105.68568226   189.34401534
 H      2   1   3     1.108869496379   132.47546023   166.42863338
 H     18  17   5     1.079417384518   127.87190946   185.21242108

---------------------------
INTERNAL COORDINATES (A.U.)
---------------------------
 S      0   0   0     0.000000000000     0.00000000     0.00000000
 C      1   0   0     3.293429805106     0.00000000     0.00000000
 C      2   1   0     2.638700497319   112.15345963     0.00000000
 C      3   2   1     2.724635410925   111.30286262   357.06432315
 C      4   3   2     2.686095713541   114.91518096     6.53778003
 H      4   3   2     2.037279178878   124.59621385   187.23675293
 C      3   2   1     2.787340250232   126.35499713   173.28733055
 H      7   3   2     2.004050493332   107.28548441   309.85236382
 H      7   3   2     2.030662685926   105.69960170   200.32628123
 C      7   3   2     2.837902216072   112.82989337    70.70386751
 H     10   7   3     2.080650107471   114.02126401   187.56279639
 H     10   7   3     2.125113434478   104.08154752   297.09076112
 C     10   7   3     2.920016690990   117.05638630    58.50303374
 H     13  10   7     2.022942435082   104.83181579    51.09795239
 H     13  10   7     2.212369122445   119.46116986   182.38244963
 H     13  10   7     1.982213840570   111.18725004   302.56583126
 S      5   4   3     5.450903918983   123.16656748   219.91958538
 C     17   5   4     3.224955606221   114.69390045   257.25431201
 C     18  17   5     2.646818591943   112.23857742   343.29747197
 C     19  18  17     2.619004882719   113.80995129     9.24797373
 C     20  19  18     2.586548768792   111.20559298     1.37384081
 H     19  18  17     1.983306299002   119.82952904   190.95010344
 C     20  19  18     2.838728999288   121.57433686   172.51270243
 H     23  20  19     2.050565730176   106.80685562   314.79688798
 H     23  20  19     1.913612048691   106.89735862   209.09903703
 C     23  20  19     2.918902930310   118.52643030    85.94513282
 H     26  23  20     2.089096693996   105.20259855   155.47984928
 H     26  23  20     1.972260334176   106.15052412    41.93590619
 C     26  23  20     2.834327304236   114.41718439   276.11502595
 H     29  26  23     2.004480585718   122.84274541    59.87471808
 H     29  26  23     2.098756983660   105.65891822   306.47437521
 H     29  26  23     2.001705374930   105.68568226   189.34401534
 H      2   1   3     2.095459666416   132.47546023   166.42863338
 H     18  17   5     2.039803240933   127.87190946   185.21242108

---------------------
BASIS SET INFORMATION
---------------------
There are 3 groups of distinct atoms

 Group   1 Type S   : 10s7p1d contracted to 4s3p1d pattern {5311/511/1}
 Group   2 Type C   : 7s4p1d contracted to 3s2p1d pattern {511/31/1}
 Group   3 Type H   : 4s1p contracted to 2s1p pattern {31/1}

Atom   0S    basis set group =>   1
Atom   1C    basis set group =>   2
Atom   2C    basis set group =>   2
Atom   3C    basis set group =>   2
Atom   4C    basis set group =>   2
Atom   5H    basis set group =>   3
Atom   6C    basis set group =>   2
Atom   7H    basis set group =>   3
Atom   8H    basis set group =>   3
Atom   9C    basis set group =>   2
Atom  10H    basis set group =>   3
Atom  11H    basis set group =>   3
Atom  12C    basis set group =>   2
Atom  13H    basis set group =>   3
Atom  14H    basis set group =>   3
Atom  15H    basis set group =>   3
Atom  16S    basis set group =>   1
Atom  17C    basis set group =>   2
Atom  18C    basis set group =>   2
Atom  19C    basis set group =>   2
Atom  20C    basis set group =>   2
Atom  21H    basis set group =>   3
Atom  22C    basis set group =>   2
Atom  23H    basis set group =>   3
Atom  24H    basis set group =>   3
Atom  25C    basis set group =>   2
Atom  26H    basis set group =>   3
Atom  27H    basis set group =>   3
Atom  28C    basis set group =>   2
Atom  29H    basis set group =>   3
Atom  30H    basis set group =>   3
Atom  31H    basis set group =>   3
Atom  32H    basis set group =>   3
Atom  33H    basis set group =>   3


           ************************************************************
           *        Program running with 24 parallel MPI-processes    *
           *              working on a common directory               *
           ************************************************************
------------------------------------------------------------------------------
                           ORCA GTO INTEGRAL CALCULATION
------------------------------------------------------------------------------

                         BASIS SET STATISTICS AND STARTUP INFO

 # of primitive gaussian shells          ...  294
 # of primitive gaussian functions       ...  534
 # of contracted shells                  ...  154
 # of contracted basis functions         ...  322
 Highest angular momentum                ...    2
 Maximum contraction depth               ...    5
 Integral package used                   ... LIBINT
 Integral threshhold            Thresh   ...  1.000e-10
 Primitive cut-off              TCut     ...  1.000e-11


------------------------------ INTEGRAL EVALUATION ----------------------------


 * One electron integrals 
 Pre-screening matrix                    ... done
 Shell pair data                         ... done (   0.003 sec)



           ************************************************************
           *        Program running with 24 parallel MPI-processes    *
           *              working on a common directory               *
           ************************************************************
-------------------------------------------------------------------------------
                                 ORCA SCF
-------------------------------------------------------------------------------

------------
SCF SETTINGS
------------
Hamiltonian:
 Density Functional     Method          .... DFT(GTOs)
 Exchange Functional    Exchange        .... WB97X-D3
 Correlation Functional Correlation     .... WB97X-D3
 Gradients option       PostSCFGGA      .... off
 Hybrid DFT is turned on
   Fraction HF Exchange ScalHFX         ....  0.195728
   Scaling of DF-GGA-X  ScalDFX         ....  0.000000
   Scaling of DF-GGA-C  ScalDFC         ....  1.000000
   Scaling of DF-LDA-C  ScalLDAC        ....  1.000000
   Perturbative correction              ....  0.000000
   Density functional embedding theory  .... OFF
 Long-range corrected/Screened/Range-Separated Hybrid DFT is turned on
   Amount of maximum screened exact exchange              ....  0.804272
   Range separation parameter mu (erf(mu*r12)/r12)        ....  0.250000


General Settings:
 Integral files         IntName         .... config_1382
 Hartree-Fock type      HFTyp           .... RHF
 Total Charge           Charge          ....    0
 Multiplicity           Mult            ....    1
 Number of Electrons    NEL             ....  134
 Basis Dimension        Dim             ....  322
 Nuclear Repulsion      ENuc            ....   1279.2124994387 Eh

Convergence Acceleration:
 DIIS                   CNVDIIS         .... on
   Start iteration      DIISMaxIt       ....    12
   Startup error        DIISStart       ....  0.200000
   # of expansion vecs  DIISMaxEq       ....     5
   Bias factor          DIISBfac        ....   1.050
   Max. coefficient     DIISMaxC        ....  10.000
 Newton-Raphson         CNVNR           .... off
 SOSCF                  CNVSOSCF        .... on
   Start iteration      SOSCFMaxIt      ....   150
   Startup grad/error   SOSCFStart      ....  0.003300
 Level Shifting         CNVShift        .... on
   Level shift para.    LevelShift      ....    0.2500
   Turn off err/grad.   ShiftErr        ....    0.0010
 Zerner damping         CNVZerner       .... off
 Static damping         CNVDamp         .... on
   Fraction old density DampFac         ....    0.7000
   Max. Damping (<1)    DampMax         ....    0.9800
   Min. Damping (>=0)   DampMin         ....    0.0000
   Turn off err/grad.   DampErr         ....    0.1000
 Fernandez-Rico         CNVRico         .... off

SCF Procedure:
 Maximum # iterations   MaxIter         ....   125
 SCF integral mode      SCFMode         .... Direct
   Integral package                     .... LIBINT
 Reset frequency        DirectResetFreq ....    20
 Integral Threshold     Thresh          ....  1.000e-10 Eh
 Primitive CutOff       TCut            ....  1.000e-11 Eh

Convergence Tolerance:
 Convergence Check Mode ConvCheckMode   .... Total+1el-Energy
 Convergence forced     ConvForced      .... 0
 Energy Change          TolE            ....  1.000e-06 Eh
 1-El. energy change                    ....  1.000e-03 Eh
 Orbital Gradient       TolG            ....  5.000e-05
 Orbital Rotation angle TolX            ....  5.000e-05
 DIIS Error             TolErr          ....  1.000e-06


Diagonalization of the overlap matrix:
Smallest eigenvalue                        ... 6.373e-04
Time for diagonalization                   ...    0.015 sec
Threshold for overlap eigenvalues          ... 1.000e-08
Number of eigenvalues below threshold      ... 0
Time for construction of square roots      ...    0.024 sec
Total time needed                          ...    0.039 sec

-------------------
DFT GRID GENERATION
-------------------

General Integration Accuracy     IntAcc      ...  4.340
Radial Grid Type                 RadialGrid  ... Gauss-Chebyshev
Angular Grid (max. acc.)         AngularGrid ... Lebedev-110
Angular grid pruning method      GridPruning ... 3 (G Style)
Weight generation scheme         WeightScheme... Becke
Basis function cutoff            BFCut       ...    1.0000e-10
Integration weight cutoff        WCut        ...    1.0000e-14
Grids for H and He will be reduced by one unit

# of grid points (after initial pruning)     ...  41088 (   0.0 sec)
# of grid points (after weights+screening)   ...  36954 (   0.0 sec)
nearest neighbour list constructed           ...    0.0 sec
Grid point re-assignment to atoms done       ...    0.0 sec
Grid point division into batches done        ...    0.0 sec
Reduced shell lists constructed in    0.1 sec

Total number of grid points                  ...    36954
Total number of batches                      ...      595
Average number of points per batch           ...       62
Average number of grid points per atom       ...     1087
Average number of shells per batch           ...    78.08 (50.70%)
Average number of basis functions per batch  ...   152.92 (47.49%)
Average number of large shells per batch     ...    50.46 (64.63%)
Average number of large basis fcns per batch ...   101.08 (66.10%)
Maximum spatial batch extension              ...  15.40, 11.72, 15.87 au
Average spatial batch extension              ...   0.17,  0.14,  0.16 au

Time for grid setup =    0.149 sec

------------------------------
INITIAL GUESS: MODEL POTENTIAL
------------------------------
Loading Hartree-Fock densities                     ... done
Calculating cut-offs                               ... done
Setting up the integral package                    ... done
Initializing the effective Hamiltonian             ... done
Starting the Coulomb interaction                   ... done (   0.0 sec)
Reading the grid                                   ... done
Mapping shells                                     ... done
Starting the XC term evaluation                    ... done (   0.0 sec)
  promolecular density results
     # of electrons  =    133.998665205
     EX              =   -126.758915497
     EC              =     -4.621977339
     EX+EC           =   -131.380892836
Transforming the Hamiltonian                       ... done (   0.0 sec)
Diagonalizing the Hamiltonian                      ... done (   0.0 sec)
Back transforming the eigenvectors                 ... done (   0.0 sec)
Now organizing SCF variables                       ... done
                      ------------------
                      INITIAL GUESS DONE (   0.3 sec)
                      ------------------
--------------
SCF ITERATIONS
--------------
ITER       Energy         Delta-E        Max-DP      RMS-DP      [F,P]     Damp
               ***  Starting incremental Fock matrix formation  ***
  0  -1339.3768595267   0.000000000000 0.06647940  0.00160642  0.1623819 0.7000
  1  -1339.5752913418  -0.198431815192 0.04454547  0.00117234  0.0986173 0.7000
                               ***Turning on DIIS***
  2  -1339.6713831155  -0.096091773619 0.10074994  0.00220493  0.0516626 0.0000
  3  -1339.8162288399  -0.144845724471 0.04654917  0.00100462  0.0460540 0.0000
  4  -1339.8475422196  -0.031313379671 0.00797767  0.00021905  0.0072864 0.0000
                      *** Initiating the SOSCF procedure ***
                           *** Shutting down DIIS ***
                      *** Re-Reading the Fockian *** 
                      *** Removing any level shift *** 
ITER      Energy       Delta-E        Grad      Rot      Max-DP    RMS-DP
  5  -1339.84850446  -0.0009622385  0.001180  0.001180  0.003832  0.000105
               *** Restarting incremental Fock matrix formation ***
  6  -1339.84869136  -0.0001868985  0.001142  0.003014  0.003182  0.000070
  7  -1339.84875176  -0.0000604077  0.000614  0.003728  0.004292  0.000068
  8  -1339.84876860  -0.0000168364  0.000399  0.000713  0.000876  0.000023
  9  -1339.84877360  -0.0000050042  0.000143  0.000389  0.000366  0.000009
 10  -1339.84877424  -0.0000006323  0.000066  0.000216  0.000197  0.000004
                 **** Energy Check signals convergence ****
              ***Rediagonalizing the Fockian in SOSCF/NRSCF***

               *****************************************************
               *                     SUCCESS                       *
               *           SCF CONVERGED AFTER  11 CYCLES          *
               *****************************************************

Setting up the final grid:

General Integration Accuracy     IntAcc      ...  4.670
Radial Grid Type                 RadialGrid  ... Gauss-Chebyshev
Angular Grid (max. acc.)         AngularGrid ... Lebedev-302
Angular grid pruning method      GridPruning ... 3 (G Style)
Weight generation scheme         WeightScheme... Becke
Basis function cutoff            BFCut       ...    1.0000e-10
Integration weight cutoff        WCut        ...    1.0000e-14
Grids for H and He will be reduced by one unit

# of grid points (after initial pruning)     ... 161752 (   0.0 sec)
# of grid points (after weights+screening)   ... 142704 (   0.1 sec)
nearest neighbour list constructed           ...    0.0 sec
Grid point re-assignment to atoms done       ...    0.0 sec
Grid point division into batches done        ...    0.5 sec
Reduced shell lists constructed in    0.5 sec

Total number of grid points                  ...   142704
Total number of batches                      ...     2249
Average number of points per batch           ...       63
Average number of grid points per atom       ...     4197
Average number of shells per batch           ...    71.56 (46.47%)
Average number of basis functions per batch  ...   138.63 (43.05%)
Average number of large shells per batch     ...    44.96 (62.83%)
Average number of large basis fcns per batch ...    90.47 (65.26%)
Maximum spatial batch extension              ...  10.99, 13.23, 12.74 au
Average spatial batch extension              ...   0.10,  0.10,  0.10 au

Final grid set up in    0.8 sec
Final integration                            ... done (   0.2 sec)
Change in XC energy                          ...     0.007529409
Integrated number of electrons               ...   134.000091680
Previous integrated no of electrons          ...   134.002089186

----------------
TOTAL SCF ENERGY
----------------

Total Energy       :        -1339.84124505 Eh          -36458.93381 eV

Components:
Nuclear Repulsion  :         1279.21249944 Eh           34809.14177 eV
Electronic Energy  :        -2619.05374449 Eh          -71268.07559 eV
One Electron Energy:        -4374.98807502 Eh         -119049.47788 eV
Two Electron Energy:         1755.93433052 Eh           47781.40229 eV

Virial components:
Potential Energy   :        -2671.64280170 Eh          -72699.09658 eV
Kinetic Energy     :         1331.80155665 Eh           36240.16277 eV
Virial Ratio       :            2.00603670


DFT components:
N(Alpha)           :       67.000045839928 electrons
N(Beta)            :       67.000045839928 electrons
N(Total)           :      134.000091679856 electrons
E(XC)              :      -94.314210551088 Eh       
DFET-embed. en.    :        0.000000000000 Eh       

---------------
SCF CONVERGENCE
---------------

  Last Energy change         ...   -2.2635e-07  Tolerance :   1.0000e-06
  Last MAX-Density change    ...    3.2916e-05  Tolerance :   1.0000e-05
  Last RMS-Density change    ...    7.2973e-07  Tolerance :   1.0000e-06
  Last Orbital Gradient      ...    7.2971e-06  Tolerance :   5.0000e-05
  Last Orbital Rotation      ...    2.0838e-05  Tolerance :   5.0000e-05

             **** THE GBW FILE WAS UPDATED (config_1382.gbw) ****
             **** DENSITY FILE WAS UPDATED (config_1382.scfp) ****
             **** ENERGY FILE WAS UPDATED (config_1382.en.tmp) ****
             **** THE GBW FILE WAS UPDATED (config_1382.gbw) ****
             **** DENSITY FILE WAS UPDATED (config_1382.scfp) ****
----------------
ORBITAL ENERGIES
----------------

  NO   OCC          E(Eh)            E(eV) 
   0   2.0000     -88.969593     -2420.9857 
   1   2.0000     -88.969407     -2420.9806 
   2   2.0000     -10.335570      -281.2452 
   3   2.0000     -10.327826      -281.0344 
   4   2.0000     -10.315805      -280.7073 
   5   2.0000     -10.313965      -280.6573 
   6   2.0000     -10.298310      -280.2313 
   7   2.0000     -10.298041      -280.2239 
   8   2.0000     -10.295574      -280.1568 
   9   2.0000     -10.290521      -280.0193 
  10   2.0000     -10.285666      -279.8872 
  11   2.0000     -10.283900      -279.8391 
  12   2.0000     -10.281521      -279.7744 
  13   2.0000     -10.276493      -279.6376 
  14   2.0000     -10.276181      -279.6291 
  15   2.0000     -10.270706      -279.4801 
  16   2.0000      -8.084132      -219.9804 
  17   2.0000      -8.083213      -219.9554 
  18   2.0000      -6.042511      -164.4251 
  19   2.0000      -6.041859      -164.4073 
  20   2.0000      -6.038838      -164.3251 
  21   2.0000      -6.037622      -164.2920 
  22   2.0000      -6.034861      -164.2169 
  23   2.0000      -6.034107      -164.1964 
  24   2.0000      -1.003493       -27.3064 
  25   2.0000      -0.983723       -26.7685 
  26   2.0000      -0.918530       -24.9945 
  27   2.0000      -0.913885       -24.8681 
  28   2.0000      -0.862275       -23.4637 
  29   2.0000      -0.855212       -23.2715 
  30   2.0000      -0.842735       -22.9320 
  31   2.0000      -0.811234       -22.0748 
  32   2.0000      -0.791030       -21.5250 
  33   2.0000      -0.776136       -21.1197 
  34   2.0000      -0.708623       -19.2826 
  35   2.0000      -0.705795       -19.2057 
  36   2.0000      -0.694051       -18.8861 
  37   2.0000      -0.660386       -17.9700 
  38   2.0000      -0.632815       -17.2198 
  39   2.0000      -0.612540       -16.6681 
  40   2.0000      -0.599597       -16.3159 
  41   2.0000      -0.576252       -15.6806 
  42   2.0000      -0.553112       -15.0510 
  43   2.0000      -0.551258       -15.0005 
  44   2.0000      -0.548122       -14.9152 
  45   2.0000      -0.540561       -14.7094 
  46   2.0000      -0.521808       -14.1991 
  47   2.0000      -0.508163       -13.8278 
  48   2.0000      -0.501278       -13.6405 
  49   2.0000      -0.489949       -13.3322 
  50   2.0000      -0.488810       -13.3012 
  51   2.0000      -0.477594       -12.9960 
  52   2.0000      -0.469818       -12.7844 
  53   2.0000      -0.467793       -12.7293 
  54   2.0000      -0.461106       -12.5473 
  55   2.0000      -0.448991       -12.2177 
  56   2.0000      -0.443807       -12.0766 
  57   2.0000      -0.435342       -11.8462 
  58   2.0000      -0.432567       -11.7707 
  59   2.0000      -0.425551       -11.5798 
  60   2.0000      -0.424025       -11.5383 
  61   2.0000      -0.417044       -11.3483 
  62   2.0000      -0.409362       -11.1393 
  63   2.0000      -0.336661        -9.1610 
  64   2.0000      -0.330234        -8.9861 
  65   2.0000      -0.316975        -8.6253 
  66   2.0000      -0.309786        -8.4297 
  67   0.0000       0.041962         1.1418 
  68   0.0000       0.044157         1.2016 
  69   0.0000       0.113387         3.0854 
  70   0.0000       0.121324         3.3014 
  71   0.0000       0.129304         3.5185 
  72   0.0000       0.133154         3.6233 
  73   0.0000       0.147701         4.0192 
  74   0.0000       0.156755         4.2655 
  75   0.0000       0.163979         4.4621 
  76   0.0000       0.172230         4.6866 
  77   0.0000       0.187820         5.1108 
  78   0.0000       0.191615         5.2141 
  79   0.0000       0.199682         5.4336 
  80   0.0000       0.202264         5.5039 
  81   0.0000       0.213104         5.7989 
  82   0.0000       0.215494         5.8639 
  83   0.0000       0.217964         5.9311 
  84   0.0000       0.223181         6.0731 
  85   0.0000       0.225619         6.1394 
  86   0.0000       0.236635         6.4392 
  87   0.0000       0.243310         6.6208 
  88   0.0000       0.244735         6.6596 
  89   0.0000       0.251351         6.8396 
  90   0.0000       0.253030         6.8853 
  91   0.0000       0.264077         7.1859 
  92   0.0000       0.267624         7.2824 
  93   0.0000       0.297770         8.1027 
  94   0.0000       0.306389         8.3373 
  95   0.0000       0.309028         8.4091 
  96   0.0000       0.328175         8.9301 
  97   0.0000       0.353630         9.6227 
  98   0.0000       0.354795         9.6545 
  99   0.0000       0.362356         9.8602 
 100   0.0000       0.392442        10.6789 
 101   0.0000       0.399507        10.8711 
 102   0.0000       0.420453        11.4411 
 103   0.0000       0.431474        11.7410 
 104   0.0000       0.434183        11.8147 
 105   0.0000       0.451712        12.2917 
 106   0.0000       0.456395        12.4191 
 107   0.0000       0.475671        12.9437 
 108   0.0000       0.487879        13.2759 
 109   0.0000       0.492714        13.4074 
 110   0.0000       0.502658        13.6780 
 111   0.0000       0.512327        13.9411 
 112   0.0000       0.520192        14.1551 
 113   0.0000       0.525283        14.2937 
 114   0.0000       0.532230        14.4827 
 115   0.0000       0.537080        14.6147 
 116   0.0000       0.543580        14.7916 
 117   0.0000       0.547531        14.8991 
 118   0.0000       0.567162        15.4333 
 119   0.0000       0.574568        15.6348 
 120   0.0000       0.580414        15.7939 
 121   0.0000       0.598286        16.2802 
 122   0.0000       0.603109        16.4114 
 123   0.0000       0.611431        16.6379 
 124   0.0000       0.622235        16.9319 
 125   0.0000       0.626038        17.0354 
 126   0.0000       0.628643        17.1063 
 127   0.0000       0.647684        17.6244 
 128   0.0000       0.656327        17.8596 
 129   0.0000       0.663992        18.0681 
 130   0.0000       0.672664        18.3041 
 131   0.0000       0.676793        18.4165 
 132   0.0000       0.683748        18.6057 
 133   0.0000       0.705291        19.1919 
 134   0.0000       0.708152        19.2698 
 135   0.0000       0.712962        19.4007 
 136   0.0000       0.716913        19.5082 
 137   0.0000       0.726699        19.7745 
 138   0.0000       0.733152        19.9501 
 139   0.0000       0.736736        20.0476 
 140   0.0000       0.749699        20.4003 
 141   0.0000       0.755102        20.5474 
 142   0.0000       0.757064        20.6008 
 143   0.0000       0.764297        20.7976 
 144   0.0000       0.766861        20.8673 
 145   0.0000       0.769279        20.9332 
 146   0.0000       0.776642        21.1335 
 147   0.0000       0.779940        21.2233 
 148   0.0000       0.782662        21.2973 
 149   0.0000       0.787789        21.4368 
 150   0.0000       0.788302        21.4508 
 151   0.0000       0.792469        21.5642 
 152   0.0000       0.798689        21.7334 
 153   0.0000       0.805035        21.9061 
 154   0.0000       0.805828        21.9277 
 155   0.0000       0.809035        22.0150 
 156   0.0000       0.812367        22.1056 
 157   0.0000       0.815224        22.1834 
 158   0.0000       0.818134        22.2625 
 159   0.0000       0.826862        22.5001 
 160   0.0000       0.829726        22.5780 
 161   0.0000       0.833267        22.6743 
 162   0.0000       0.840401        22.8685 
 163   0.0000       0.845332        23.0027 
 164   0.0000       0.855441        23.2777 
 165   0.0000       0.869384        23.6571 
 166   0.0000       0.877490        23.8777 
 167   0.0000       0.887228        24.1427 
 168   0.0000       0.892197        24.2779 
 169   0.0000       0.904910        24.6238 
 170   0.0000       0.910365        24.7723 
 171   0.0000       0.915084        24.9007 
 172   0.0000       0.933904        25.4128 
 173   0.0000       0.939558        25.5667 
 174   0.0000       0.947387        25.7797 
 175   0.0000       0.963834        26.2273 
 176   0.0000       0.983179        26.7537 
 177   0.0000       0.985860        26.8266 
 178   0.0000       1.006344        27.3840 
 179   0.0000       1.024650        27.8821 
 180   0.0000       1.031499        28.0685 
 181   0.0000       1.048836        28.5403 
 182   0.0000       1.078385        29.3443 
 183   0.0000       1.092646        29.7324 
 184   0.0000       1.116447        30.3801 
 185   0.0000       1.141160        31.0525 
 186   0.0000       1.153944        31.4004 
 187   0.0000       1.180037        32.1104 
 188   0.0000       1.186324        32.2815 
 189   0.0000       1.198253        32.6061 
 190   0.0000       1.207732        32.8641 
 191   0.0000       1.222078        33.2544 
 192   0.0000       1.237587        33.6765 
 193   0.0000       1.256015        34.1779 
 194   0.0000       1.282427        34.8966 
 195   0.0000       1.316366        35.8201 
 196   0.0000       1.318761        35.8853 
 197   0.0000       1.323446        36.0128 
 198   0.0000       1.348286        36.6887 
 199   0.0000       1.362051        37.0633 
 200   0.0000       1.384223        37.6666 
 201   0.0000       1.404098        38.2074 
 202   0.0000       1.426057        38.8050 
 203   0.0000       1.435123        39.0517 
 204   0.0000       1.464979        39.8641 
 205   0.0000       1.482441        40.3393 
 206   0.0000       1.512061        41.1453 
 207   0.0000       1.521719        41.4081 
 208   0.0000       1.530914        41.6583 
 209   0.0000       1.561878        42.5009 
 210   0.0000       1.576938        42.9107 
 211   0.0000       1.618513        44.0420 
 212   0.0000       1.620970        44.1088 
 213   0.0000       1.652522        44.9674 
 214   0.0000       1.655534        45.0494 
 215   0.0000       1.659174        45.1484 
 216   0.0000       1.684958        45.8501 
 217   0.0000       1.728866        47.0448 
 218   0.0000       1.744646        47.4742 
 219   0.0000       1.778955        48.4078 
 220   0.0000       1.794374        48.8274 
 221   0.0000       1.813053        49.3357 
 222   0.0000       1.820115        49.5279 
 223   0.0000       1.829699        49.7886 
 224   0.0000       1.832750        49.8717 
 225   0.0000       1.842277        50.1309 
 226   0.0000       1.851984        50.3950 
 227   0.0000       1.854246        50.4566 
 228   0.0000       1.865061        50.7509 
 229   0.0000       1.869784        50.8794 
 230   0.0000       1.883561        51.2543 
 231   0.0000       1.888491        51.3884 
 232   0.0000       1.906632        51.8821 
 233   0.0000       1.909501        51.9602 
 234   0.0000       1.913070        52.0573 
 235   0.0000       1.930195        52.5233 
 236   0.0000       1.938415        52.7469 
 237   0.0000       1.943638        52.8891 
 238   0.0000       1.950105        53.0651 
 239   0.0000       1.952853        53.1398 
 240   0.0000       1.961274        53.3690 
 241   0.0000       1.972426        53.6725 
 242   0.0000       1.975345        53.7519 
 243   0.0000       1.979617        53.8681 
 244   0.0000       1.980558        53.8937 
 245   0.0000       1.993120        54.2356 
 246   0.0000       1.999388        54.4061 
 247   0.0000       2.018928        54.9378 
 248   0.0000       2.026075        55.1323 
 249   0.0000       2.027429        55.1691 
 250   0.0000       2.034202        55.3535 
 251   0.0000       2.048176        55.7337 
 252   0.0000       2.057550        55.9888 
 253   0.0000       2.072255        56.3889 
 254   0.0000       2.075751        56.4841 
 255   0.0000       2.085846        56.7588 
 256   0.0000       2.116991        57.6063 
 257   0.0000       2.122121        57.7459 
 258   0.0000       2.157782        58.7162 
 259   0.0000       2.160801        58.7984 
 260   0.0000       2.175170        59.1894 
 261   0.0000       2.180631        59.3380 
 262   0.0000       2.207126        60.0590 
 263   0.0000       2.226459        60.5850 
 264   0.0000       2.236104        60.8475 
 265   0.0000       2.250951        61.2515 
 266   0.0000       2.268234        61.7218 
 267   0.0000       2.283096        62.1262 
 268   0.0000       2.286377        62.2155 
 269   0.0000       2.307152        62.7808 
 270   0.0000       2.329929        63.4006 
 271   0.0000       2.354931        64.0809 
 272   0.0000       2.367454        64.4217 
 273   0.0000       2.392745        65.1099 
 274   0.0000       2.426529        66.0292 
 275   0.0000       2.433090        66.2077 
 276   0.0000       2.450682        66.6864 
 277   0.0000       2.457199        66.8638 
 278   0.0000       2.470229        67.2184 
 279   0.0000       2.486887        67.6716 
 280   0.0000       2.504445        68.1494 
 281   0.0000       2.517474        68.5040 
 282   0.0000       2.531887        68.8962 
 283   0.0000       2.545002        69.2530 
 284   0.0000       2.546252        69.2871 
 285   0.0000       2.571029        69.9613 
 286   0.0000       2.580152        70.2095 
 287   0.0000       2.596392        70.6514 
 288   0.0000       2.603541        70.8459 
 289   0.0000       2.624485        71.4159 
 290   0.0000       2.676380        72.8280 
 291   0.0000       2.679862        72.9227 
 292   0.0000       2.700743        73.4910 
 293   0.0000       2.708989        73.7153 
 294   0.0000       2.717250        73.9401 
 295   0.0000       2.725196        74.1564 
 296   0.0000       2.749404        74.8151 
 297   0.0000       2.783650        75.7470 
 298   0.0000       2.798961        76.1636 
 299   0.0000       2.846804        77.4655 
 300   0.0000       2.892148        78.6993 
 301   0.0000       2.904012        79.0222 
 302   0.0000       2.913033        79.2677 
 303   0.0000       2.945660        80.1555 
 304   0.0000       2.952500        80.3416 
 305   0.0000       2.972911        80.8970 
 306   0.0000       2.990902        81.3866 
 307   0.0000       3.039665        82.7135 
 308   0.0000       3.047592        82.9292 
 309   0.0000       3.066563        83.4454 
 310   0.0000       3.074844        83.6708 
 311   0.0000       3.088999        84.0559 
 312   0.0000       3.096795        84.2681 
 313   0.0000       3.190080        86.8065 
 314   0.0000       3.194308        86.9215 
 315   0.0000       3.201133        87.1073 
 316   0.0000       3.222963        87.7013 
 317   0.0000       3.232330        87.9562 
 318   0.0000       3.238288        88.1183 
 319   0.0000       3.306593        89.9770 
 320   0.0000       3.344168        90.9995 
 321   0.0000       3.459476        94.1371 

                    ********************************
                    * MULLIKEN POPULATION ANALYSIS *
                    ********************************

-----------------------
MULLIKEN ATOMIC CHARGES
-----------------------
   0 S :    0.122918
   1 C :   -0.109100
   2 C :   -0.159284
   3 C :    0.053627
   4 C :   -0.197616
   5 H :    0.010009
   6 C :    0.119469
   7 H :    0.020261
   8 H :    0.012458
   9 C :   -0.079960
  10 H :    0.031954
  11 H :    0.019249
  12 C :   -0.043290
  13 H :    0.016182
  14 H :    0.057175
  15 H :    0.025913
  16 S :    0.133118
  17 C :   -0.075062
  18 C :   -0.049801
  19 C :    0.009119
  20 C :   -0.199739
  21 H :   -0.005695
  22 C :    0.110136
  23 H :    0.014775
  24 H :   -0.016915
  25 C :   -0.026686
  26 H :    0.031280
  27 H :    0.014275
  28 C :   -0.020713
  29 H :    0.028819
  30 H :    0.014538
  31 H :    0.029675
  32 H :    0.055185
  33 H :    0.053726
Sum of atomic charges:    0.0000000

--------------------------------
MULLIKEN REDUCED ORBITAL CHARGES
--------------------------------
  0 S s       :     5.841715  s :     5.841715
      pz      :     3.322193  p :     9.927861
      px      :     3.640124
      py      :     2.965544
      dz2     :     0.013453  d :     0.107506
      dxz     :     0.011586
      dyz     :     0.045214
      dx2y2   :     0.016198
      dxy     :     0.021056
  1 C s       :     3.165991  s :     3.165991
      pz      :     0.932356  p :     2.910022
      px      :     1.084879
      py      :     0.892786
      dz2     :     0.007506  d :     0.033087
      dxz     :     0.007253
      dyz     :     0.010832
      dx2y2   :     0.003542
      dxy     :     0.003954
  2 C s       :     3.114862  s :     3.114862
      pz      :     0.991570  p :     3.000267
      px      :     1.006596
      py      :     1.002101
      dz2     :     0.012605  d :     0.044154
      dxz     :     0.007902
      dyz     :     0.011219
      dx2y2   :     0.005708
      dxy     :     0.006719
  3 C s       :     3.188202  s :     3.188202
      pz      :     0.842995  p :     2.725749
      px      :     0.992285
      py      :     0.890469
      dz2     :     0.007625  d :     0.032421
      dxz     :     0.004358
      dyz     :     0.010293
      dx2y2   :     0.004576
      dxy     :     0.005570
  4 C s       :     3.112659  s :     3.112659
      pz      :     0.933328  p :     3.043468
      px      :     1.110870
      py      :     0.999270
      dz2     :     0.007383  d :     0.041490
      dxz     :     0.007094
      dyz     :     0.017032
      dx2y2   :     0.005068
      dxy     :     0.004913
  5 H s       :     0.966137  s :     0.966137
      pz      :     0.012208  p :     0.023854
      px      :     0.005607
      py      :     0.006039
  6 C s       :     2.919433  s :     2.919433
      pz      :     0.963694  p :     2.922548
      px      :     0.999689
      py      :     0.959165
      dz2     :     0.006284  d :     0.038550
      dxz     :     0.004906
      dyz     :     0.011899
      dx2y2   :     0.007183
      dxy     :     0.008279
  7 H s       :     0.954579  s :     0.954579
      pz      :     0.005648  p :     0.025160
      px      :     0.012983
      py      :     0.006528
  8 H s       :     0.963312  s :     0.963312
      pz      :     0.010259  p :     0.024230
      px      :     0.005123
      py      :     0.008849
  9 C s       :     3.052519  s :     3.052519
      pz      :     1.022465  p :     2.990117
      px      :     0.983027
      py      :     0.984625
      dz2     :     0.004986  d :     0.037324
      dxz     :     0.005367
      dyz     :     0.010469
      dx2y2   :     0.007926
      dxy     :     0.008577
 10 H s       :     0.946023  s :     0.946023
      pz      :     0.009903  p :     0.022023
      px      :     0.004146
      py      :     0.007974
 11 H s       :     0.959055  s :     0.959055
      pz      :     0.010772  p :     0.021696
      px      :     0.003564
      py      :     0.007360
 12 C s       :     3.012244  s :     3.012244
      pz      :     1.049619  p :     3.003181
      px      :     0.951750
      py      :     1.001812
      dz2     :     0.003393  d :     0.027865
      dxz     :     0.004285
      dyz     :     0.008843
      dx2y2   :     0.005020
      dxy     :     0.006324
 13 H s       :     0.958400  s :     0.958400
      pz      :     0.011064  p :     0.025418
      px      :     0.004680
      py      :     0.009674
 14 H s       :     0.922515  s :     0.922515
      pz      :     0.004420  p :     0.020310
      px      :     0.007443
      py      :     0.008447
 15 H s       :     0.947583  s :     0.947583
      pz      :     0.012051  p :     0.026504
      px      :     0.006028
      py      :     0.008425
 16 S s       :     5.842147  s :     5.842147
      pz      :     3.644591  p :     9.917320
      px      :     3.235347
      py      :     3.037383
      dz2     :     0.011849  d :     0.107414
      dxz     :     0.012655
      dyz     :     0.021222
      dx2y2   :     0.037915
      dxy     :     0.023773
 17 C s       :     3.127044  s :     3.127044
      pz      :     1.076363  p :     2.911928
      px      :     0.986667
      py      :     0.848898
      dz2     :     0.002812  d :     0.036090
      dxz     :     0.006508
      dyz     :     0.005269
      dx2y2   :     0.010638
      dxy     :     0.010864
 18 C s       :     3.185679  s :     3.185679
      pz      :     1.026038  p :     2.828151
      px      :     0.906322
      py      :     0.895792
      dz2     :     0.002687  d :     0.035971
      dxz     :     0.006150
      dyz     :     0.004084
      dx2y2   :     0.012016
      dxy     :     0.011034
 19 C s       :     3.041592  s :     3.041592
      pz      :     0.976715  p :     2.902405
      px      :     0.952030
      py      :     0.973660
      dz2     :     0.003260  d :     0.046884
      dxz     :     0.007651
      dyz     :     0.008062
      dx2y2   :     0.011500
      dxy     :     0.016412
 20 C s       :     3.092275  s :     3.092275
      pz      :     1.133197  p :     3.064885
      px      :     0.902662
      py      :     1.029026
      dz2     :     0.003481  d :     0.042579
      dxz     :     0.006629
      dyz     :     0.005348
      dx2y2   :     0.014969
      dxy     :     0.012152
 21 H s       :     0.980478  s :     0.980478
      pz      :     0.005940  p :     0.025217
      px      :     0.005505
      py      :     0.013772
 22 C s       :     2.886440  s :     2.886440
      pz      :     1.006572  p :     2.966330
      px      :     0.930425
      py      :     1.029334
      dz2     :     0.005656  d :     0.037095
      dxz     :     0.007445
      dyz     :     0.010231
      dx2y2   :     0.009845
      dxy     :     0.003917
 23 H s       :     0.961352  s :     0.961352
      pz      :     0.008739  p :     0.023873
      px      :     0.004610
      py      :     0.010524
 24 H s       :     0.989143  s :     0.989143
      pz      :     0.008325  p :     0.027772
      px      :     0.005604
      py      :     0.013843
 25 C s       :     3.009621  s :     3.009621
      pz      :     0.986524  p :     2.978951
      px      :     0.985693
      py      :     1.006734
      dz2     :     0.005846  d :     0.038115
      dxz     :     0.007703
      dyz     :     0.010061
      dx2y2   :     0.006605
      dxy     :     0.007899
 26 H s       :     0.946375  s :     0.946375
      pz      :     0.005046  p :     0.022345
      px      :     0.011655
      py      :     0.005644
 27 H s       :     0.960734  s :     0.960734
      pz      :     0.009339  p :     0.024991
      px      :     0.007366
      py      :     0.008285
 28 C s       :     2.979996  s :     2.979996
      pz      :     1.010765  p :     3.010849
      px      :     1.038809
      py      :     0.961275
      dz2     :     0.003545  d :     0.029869
      dxz     :     0.007252
      dyz     :     0.007053
      dx2y2   :     0.004708
      dxy     :     0.007311
 29 H s       :     0.945601  s :     0.945601
      pz      :     0.006882  p :     0.025580
      px      :     0.010562
      py      :     0.008136
 30 H s       :     0.961976  s :     0.961976
      pz      :     0.010204  p :     0.023486
      px      :     0.006373
      py      :     0.006909
 31 H s       :     0.944647  s :     0.944647
      pz      :     0.010302  p :     0.025677
      px      :     0.010204
      py      :     0.005171
 32 H s       :     0.921432  s :     0.921432
      pz      :     0.003441  p :     0.023383
      px      :     0.006726
      py      :     0.013216
 33 H s       :     0.922278  s :     0.922278
      pz      :     0.005930  p :     0.023996
      px      :     0.007057
      py      :     0.011010


                     *******************************
                     * LOEWDIN POPULATION ANALYSIS *
                     *******************************

----------------------
LOEWDIN ATOMIC CHARGES
----------------------
   0 S :    0.409646
   1 C :   -0.213323
   2 C :   -0.066004
   3 C :   -0.057461
   4 C :   -0.194812
   5 H :    0.028592
   6 C :   -0.032456
   7 H :    0.033589
   8 H :    0.027455
   9 C :   -0.041928
  10 H :    0.024071
  11 H :    0.024118
  12 C :   -0.071839
  13 H :    0.020657
  14 H :    0.043167
  15 H :    0.018848
  16 S :    0.413606
  17 C :   -0.196791
  18 C :   -0.068463
  19 C :   -0.047902
  20 C :   -0.197987
  21 H :    0.020625
  22 C :   -0.024743
  23 H :    0.031245
  24 H :    0.017001
  25 C :   -0.024919
  26 H :    0.032809
  27 H :    0.016598
  28 C :   -0.063687
  29 H :    0.019891
  30 H :    0.028461
  31 H :    0.024064
  32 H :    0.038309
  33 H :    0.029563

-------------------------------
LOEWDIN REDUCED ORBITAL CHARGES
-------------------------------
  0 S s       :     5.512166  s :     5.512166
      pz      :     3.364487  p :     9.944993
      px      :     3.599091
      py      :     2.981415
      dz2     :     0.014244  d :     0.133195
      dxz     :     0.012019
      dyz     :     0.059208
      dx2y2   :     0.021597
      dxy     :     0.026127
  1 C s       :     2.938096  s :     2.938096
      pz      :     1.054405  p :     3.197001
      px      :     1.100200
      py      :     1.042396
      dz2     :     0.021836  d :     0.078226
      dxz     :     0.014626
      dyz     :     0.027298
      dx2y2   :     0.006842
      dxy     :     0.007624
  2 C s       :     2.862379  s :     2.862379
      pz      :     1.068681  p :     3.093999
      px      :     0.981668
      py      :     1.043650
      dz2     :     0.035641  d :     0.109626
      dxz     :     0.016462
      dyz     :     0.029672
      dx2y2   :     0.014021
      dxy     :     0.013830
  3 C s       :     2.879998  s :     2.879998
      pz      :     1.048303  p :     3.091828
      px      :     1.012058
      py      :     1.031467
      dz2     :     0.023337  d :     0.085635
      dxz     :     0.008943
      dyz     :     0.029812
      dx2y2   :     0.011283
      dxy     :     0.012260
  4 C s       :     2.933917  s :     2.933917
      pz      :     1.047907  p :     3.165043
      px      :     1.091687
      py      :     1.025448
      dz2     :     0.019351  d :     0.095853
      dxz     :     0.014171
      dyz     :     0.040801
      dx2y2   :     0.011065
      dxy     :     0.010465
  5 H s       :     0.900213  s :     0.900213
      pz      :     0.035404  p :     0.071195
      px      :     0.016818
      py      :     0.018973
  6 C s       :     2.801253  s :     2.801253
      pz      :     1.042102  p :     3.131817
      px      :     1.049470
      py      :     1.040245
      dz2     :     0.017055  d :     0.099386
      dxz     :     0.011024
      dyz     :     0.031496
      dx2y2   :     0.016543
      dxy     :     0.023269
  7 H s       :     0.893338  s :     0.893338
      pz      :     0.016709  p :     0.073073
      px      :     0.037121
      py      :     0.019242
  8 H s       :     0.902497  s :     0.902497
      pz      :     0.028811  p :     0.070048
      px      :     0.015525
      py      :     0.025712
  9 C s       :     2.838897  s :     2.838897
      pz      :     1.061940  p :     3.112818
      px      :     1.022126
      py      :     1.028753
      dz2     :     0.012557  d :     0.090213
      dxz     :     0.011099
      dyz     :     0.026169
      dx2y2   :     0.019059
      dxy     :     0.021329
 10 H s       :     0.910417  s :     0.910417
      pz      :     0.027002  p :     0.065513
      px      :     0.014421
      py      :     0.024090
 11 H s       :     0.914320  s :     0.914320
      pz      :     0.028999  p :     0.061561
      px      :     0.011791
      py      :     0.020771
 12 C s       :     2.835042  s :     2.835042
      pz      :     1.097570  p :     3.166670
      px      :     1.011810
      py      :     1.057289
      dz2     :     0.009471  d :     0.070128
      dxz     :     0.009636
      dyz     :     0.021370
      dx2y2   :     0.012927
      dxy     :     0.016724
 13 H s       :     0.907815  s :     0.907815
      pz      :     0.028712  p :     0.071528
      px      :     0.014374
      py      :     0.028442
 14 H s       :     0.902863  s :     0.902863
      pz      :     0.010304  p :     0.053970
      px      :     0.021617
      py      :     0.022049
 15 H s       :     0.904597  s :     0.904597
      pz      :     0.033153  p :     0.076555
      px      :     0.019177
      py      :     0.024224
 16 S s       :     5.513682  s :     5.513682
      pz      :     3.604259  p :     9.939700
      px      :     3.269521
      py      :     3.065920
      dz2     :     0.014754  d :     0.133012
      dxz     :     0.014053
      dyz     :     0.025196
      dx2y2   :     0.048833
      dxy     :     0.030176
 17 C s       :     2.933213  s :     2.933213
      pz      :     1.073482  p :     3.179777
      px      :     1.091120
      py      :     1.015174
      dz2     :     0.005599  d :     0.083802
      dxz     :     0.012045
      dyz     :     0.010447
      dx2y2   :     0.028840
      dxy     :     0.026871
 18 C s       :     2.853726  s :     2.853726
      pz      :     1.014991  p :     3.119166
      px      :     1.054736
      py      :     1.049438
      dz2     :     0.006613  d :     0.095572
      dxz     :     0.013016
      dyz     :     0.007867
      dx2y2   :     0.036202
      dxy     :     0.031875
 19 C s       :     2.845607  s :     2.845607
      pz      :     0.955369  p :     3.084115
      px      :     1.053295
      py      :     1.075451
      dz2     :     0.008028  d :     0.118180
      dxz     :     0.014338
      dyz     :     0.017316
      dx2y2   :     0.032959
      dxy     :     0.045539
 20 C s       :     2.915668  s :     2.915668
      pz      :     1.121154  p :     3.181620
      px      :     1.006308
      py      :     1.054158
      dz2     :     0.007226  d :     0.100700
      dxz     :     0.013389
      dyz     :     0.011069
      dx2y2   :     0.037874
      dxy     :     0.031142
 21 H s       :     0.903356  s :     0.903356
      pz      :     0.018655  p :     0.076019
      px      :     0.018097
      py      :     0.039266
 22 C s       :     2.800982  s :     2.800982
      pz      :     1.037216  p :     3.130945
      px      :     1.000358
      py      :     1.093371
      dz2     :     0.013360  d :     0.092816
      dxz     :     0.019024
      dyz     :     0.025476
      dx2y2   :     0.025846
      dxy     :     0.009110
 23 H s       :     0.899840  s :     0.899840
      pz      :     0.027000  p :     0.068915
      px      :     0.014879
      py      :     0.027036
 24 H s       :     0.897594  s :     0.897594
      pz      :     0.026874  p :     0.085405
      px      :     0.020082
      py      :     0.038448
 25 C s       :     2.818174  s :     2.818174
      pz      :     1.033416  p :     3.113658
      px      :     1.039545
      py      :     1.040698
      dz2     :     0.014121  d :     0.093086
      dxz     :     0.020489
      dyz     :     0.022961
      dx2y2   :     0.017111
      dxy     :     0.018404
 26 H s       :     0.903711  s :     0.903711
      pz      :     0.014542  p :     0.063480
      px      :     0.032104
      py      :     0.016833
 27 H s       :     0.907139  s :     0.907139
      pz      :     0.028655  p :     0.076263
      px      :     0.021547
      py      :     0.026061
 28 C s       :     2.815485  s :     2.815485
      pz      :     1.062418  p :     3.171216
      px      :     1.082874
      py      :     1.025924
      dz2     :     0.008988  d :     0.076986
      dxz     :     0.018693
      dyz     :     0.018530
      dx2y2   :     0.012790
      dxy     :     0.017985
 29 H s       :     0.907194  s :     0.907194
      pz      :     0.017876  p :     0.072915
      px      :     0.029977
      py      :     0.025061
 30 H s       :     0.908760  s :     0.908760
      pz      :     0.027141  p :     0.062778
      px      :     0.016219
      py      :     0.019418
 31 H s       :     0.903623  s :     0.903623
      pz      :     0.028364  p :     0.072314
      px      :     0.028375
      py      :     0.015575
 32 H s       :     0.890121  s :     0.890121
      pz      :     0.010994  p :     0.071571
      px      :     0.020833
      py      :     0.039744
 33 H s       :     0.894728  s :     0.894728
      pz      :     0.019394  p :     0.075708
      px      :     0.021159
      py      :     0.035156


                      *****************************
                      * MAYER POPULATION ANALYSIS *
                      *****************************

  NA   - Mulliken gross atomic population
  ZA   - Total nuclear charge
  QA   - Mulliken gross atomic charge
  VA   - Mayer's total valence
  BVA  - Mayer's bonded valence
  FA   - Mayer's free valence

  ATOM       NA         ZA         QA         VA         BVA        FA
  0 S     15.8771    16.0000     0.1229     2.4914     2.4914     0.0000
  1 C      6.1091     6.0000    -0.1091     3.8292     3.8292     0.0000
  2 C      6.1593     6.0000    -0.1593     4.0383     4.0383     0.0000
  3 C      5.9464     6.0000     0.0536     3.9078     3.9078     0.0000
  4 C      6.1976     6.0000    -0.1976     3.9256     3.9256     0.0000
  5 H      0.9900     1.0000     0.0100     1.0033     1.0033     0.0000
  6 C      5.8805     6.0000     0.1195     3.9455     3.9455     0.0000
  7 H      0.9797     1.0000     0.0203     0.9882     0.9882     0.0000
  8 H      0.9875     1.0000     0.0125     0.9963     0.9963     0.0000
  9 C      6.0800     6.0000    -0.0800     4.0761     4.0761     0.0000
 10 H      0.9680     1.0000     0.0320     0.9781     0.9781    -0.0000
 11 H      0.9808     1.0000     0.0192     0.9819     0.9819     0.0000
 12 C      6.0433     6.0000    -0.0433     3.9708     3.9708    -0.0000
 13 H      0.9838     1.0000     0.0162     0.9936     0.9936    -0.0000
 14 H      0.9428     1.0000     0.0572     0.9851     0.9851    -0.0000
 15 H      0.9741     1.0000     0.0259     0.9975     0.9975    -0.0000
 16 S     15.8669    16.0000     0.1331     2.4888     2.4888     0.0000
 17 C      6.0751     6.0000    -0.0751     3.8303     3.8303    -0.0000
 18 C      6.0498     6.0000    -0.0498     3.9825     3.9825     0.0000
 19 C      5.9909     6.0000     0.0091     4.0228     4.0228    -0.0000
 20 C      6.1997     6.0000    -0.1997     3.8872     3.8872     0.0000
 21 H      1.0057     1.0000    -0.0057     0.9990     0.9990    -0.0000
 22 C      5.8899     6.0000     0.1101     3.9498     3.9498     0.0000
 23 H      0.9852     1.0000     0.0148     0.9919     0.9919    -0.0000
 24 H      1.0169     1.0000    -0.0169     1.0045     1.0045     0.0000
 25 C      6.0267     6.0000    -0.0267     4.0942     4.0942     0.0000
 26 H      0.9687     1.0000     0.0313     0.9752     0.9752     0.0000
 27 H      0.9857     1.0000     0.0143     0.9928     0.9928     0.0000
 28 C      6.0207     6.0000    -0.0207     3.9960     3.9960    -0.0000
 29 H      0.9712     1.0000     0.0288     0.9932     0.9932    -0.0000
 30 H      0.9855     1.0000     0.0145     0.9899     0.9899    -0.0000
 31 H      0.9703     1.0000     0.0297     0.9895     0.9895    -0.0000
 32 H      0.9448     1.0000     0.0552     1.0061     1.0061    -0.0000
 33 H      0.9463     1.0000     0.0537     0.9961     0.9961    -0.0000

  Mayer bond orders larger than 0.100000
B(  0-S ,  1-C ) :   1.1486 B(  0-S ,  4-C ) :   1.1570 B(  1-C ,  2-C ) :   1.6007 
B(  1-C ,  4-C ) :   0.1028 B(  1-C , 32-H ) :   0.9532 B(  2-C ,  3-C ) :   1.2572 
B(  2-C ,  6-C ) :   1.0180 B(  3-C ,  4-C ) :   1.5658 B(  3-C ,  5-H ) :   0.9915 
B(  4-C , 20-C ) :   1.0098 B(  6-C ,  7-H ) :   0.9289 B(  6-C ,  8-H ) :   0.9393 
B(  6-C ,  9-C ) :   1.0723 B(  9-C , 10-H ) :   0.9579 B(  9-C , 11-H ) :   0.9535 
B(  9-C , 12-C ) :   1.0627 B( 12-C , 13-H ) :   0.9739 B( 12-C , 14-H ) :   0.9743 
B( 12-C , 15-H ) :   0.9703 B( 16-S , 17-C ) :   1.1725 B( 16-S , 20-C ) :   1.1396 
B( 17-C , 18-C ) :   1.5912 B( 17-C , 20-C ) :   0.1006 B( 17-C , 33-H ) :   0.9608 
B( 18-C , 19-C ) :   1.2667 B( 18-C , 21-H ) :   0.9971 B( 19-C , 20-C ) :   1.5864 
B( 19-C , 22-C ) :   1.0343 B( 22-C , 23-H ) :   0.9367 B( 22-C , 24-H ) :   0.9057 
B( 22-C , 25-C ) :   1.0736 B( 25-C , 26-H ) :   0.9534 B( 25-C , 27-H ) :   0.9500 
B( 25-C , 28-C ) :   1.0812 B( 28-C , 29-H ) :   0.9759 B( 28-C , 30-H ) :   0.9711 
B( 28-C , 31-H ) :   0.9716 

-------
TIMINGS
-------

Total SCF time: 0 days 0 hours 0 min 19 sec 

Total time                  ....      19.629 sec
Sum of individual times     ....      18.758 sec  ( 95.6%)

Fock matrix formation       ....      17.084 sec  ( 87.0%)
  XC integration            ....       1.507 sec  (  8.8% of F)
    Basis function eval.    ....       0.143 sec  (  9.5% of XC)
    Density eval.           ....       0.102 sec  (  6.7% of XC)
    XC-Functional eval.     ....       0.116 sec  (  7.7% of XC)
    XC-Potential eval.      ....       0.116 sec  (  7.7% of XC)
Diagonalization             ....       0.141 sec  (  0.7%)
Density matrix formation    ....       0.022 sec  (  0.1%)
Population analysis         ....       0.052 sec  (  0.3%)
Initial guess               ....       0.170 sec  (  0.9%)
Orbital Transformation      ....       0.000 sec  (  0.0%)
Orbital Orthonormalization  ....       0.000 sec  (  0.0%)
DIIS solution               ....       0.166 sec  (  0.8%)
SOSCF solution              ....       0.128 sec  (  0.7%)
Grid generation             ....       0.995 sec  (  5.1%)


-------------------------------------------------------------------------------
                          DFT DISPERSION CORRECTION                            
                                                                               
                              DFTD3 V3.1  Rev 1                                
                              USING zero damping                               
-------------------------------------------------------------------------------
The omegaB97X-D3 functional is recognized. Fit by Chai et al.
Active option DFTDOPT                   ...         3   

molecular C6(AA) [au] = 14191.854675 


            DFT-D V3
 parameters
 s6 scaling factor         :     1.0000 
 rs6 scaling factor        :     1.2810 
 s8 scaling factor         :     1.0000 
 rs8 scaling factor        :     1.0940 
 Damping factor alpha6     :    14.0000 
 Damping factor alpha8     :    16.0000 
 ad hoc parameters k1-k3   :    16.0000     1.3333    -4.0000 

 Edisp/kcal,au: -9.269771431002  -0.014772319503 
 E6   /kcal   :  -4.192435266 
 E8   /kcal   :  -5.077336165 
 % E8         :  54.773045947 

-------------------------   ----------------
Dispersion correction           -0.014772320
-------------------------   ----------------


-------------------------   --------------------
FINAL SINGLE POINT ENERGY     -1339.856017373563
-------------------------   --------------------


                            ***************************************
                            *     ORCA property calculations      *
                            ***************************************

                                    ---------------------
                                    Active property flags
                                    ---------------------
   (+) Dipole Moment


------------------------------------------------------------------------------
                       ORCA ELECTRIC PROPERTIES CALCULATION
------------------------------------------------------------------------------

Dipole Moment Calculation                       ... on
Quadrupole Moment Calculation                   ... off
Polarizability Calculation                      ... off
GBWName                                         ... config_1382.gbw
Electron density file                           ... config_1382.scfp
The origin for moment calculation is the CENTER OF MASS  = (-92.992469, 39.470288 56.488539)

-------------
DIPOLE MOMENT
-------------
                                X             Y             Z
Electronic contribution:    -12.58271       3.61976       9.25258
Nuclear contribution   :     13.04904      -3.52922      -9.51921
                        -----------------------------------------
Total Dipole Moment    :      0.46633       0.09054      -0.26663
                        -----------------------------------------
Magnitude (a.u.)       :      0.54475
Magnitude (Debye)      :      1.38465



--------------------
Rotational spectrum 
--------------------
 
Rotational constants in cm-1:     0.022455     0.007672     0.006595 
Rotational constants in MHz :   673.197113   230.002833   197.709055 

 Dipole components along the rotational axes: 
x,y,z [a.u.] :     0.037403     0.385369    -0.383203 
x,y,z [Debye]:     0.095070     0.979531    -0.974025 

 

Timings for individual modules:

Sum of individual times         ...       20.815 sec (=   0.347 min)
GTO integral calculation        ...        0.783 sec (=   0.013 min)   3.8 %
SCF iterations                  ...       20.032 sec (=   0.334 min)  96.2 %
                             ****ORCA TERMINATED NORMALLY****
TOTAL RUN TIME: 0 days 0 hours 0 minutes 21 seconds 486 msec
