
                                 *****************
                                 * O   R   C   A *
                                 *****************

           --- An Ab Initio, DFT and Semiempirical electronic structure package ---

                  #######################################################
                  #                        -***-                        #
                  #          Department of theory and spectroscopy      #
                  #               Directorship: Frank Neese             #
                  #        Max Planck Institute fuer Kohlenforschung    #
                  #                Kaiser Wilhelm Platz 1               #
                  #                 D-45470 Muelheim/Ruhr               #
                  #                      Germany                        #
                  #                                                     #
                  #                  All rights reserved                #
                  #                        -***-                        #
                  #######################################################


                         Program Version 4.2.1 -  RELEASE  -


 With contributions from (in alphabetic order):
   Daniel Aravena         : Magnetic Suceptibility
   Michael Atanasov       : Ab Initio Ligand Field Theory (pilot matlab implementation)
   Alexander A. Auer      : GIAO ZORA, VPT2
   Ute Becker             : Parallelization
   Giovanni Bistoni       : ED, misc. LED, open-shell LED, HFLD
   Martin Brehm           : Molecular dynamics
   Dmytro Bykov           : SCF Hessian
   Vijay G. Chilkuri      : MRCI spin determinant printing, contributions to CSF-ICE
   Dipayan Datta          : RHF DLPNO-CCSD density
   Achintya Kumar Dutta   : EOM-CC, STEOM-CC
   Dmitry Ganyushin       : Spin-Orbit,Spin-Spin,Magnetic field MRCI
   Miquel Garcia          : C-PCM Hessian, Gaussian charge scheme
   Yang Guo               : DLPNO-NEVPT2, CIM, IAO-localization
   Andreas Hansen         : Spin unrestricted coupled pair/coupled cluster methods
   Benjamin Helmich-Paris : CASSCF linear response (MC-RPA)
   Lee Huntington         : MR-EOM, pCC
   Robert Izsak           : Overlap fitted RIJCOSX, COSX-SCS-MP3, EOM
   Christian Kollmar      : KDIIS, OOCD, Brueckner-CCSD(T), CCSD density
   Simone Kossmann        : Meta GGA functionals, TD-DFT gradient, OOMP2, MP2 Hessian
   Martin Krupicka        : AUTO-CI
   Lucas Lang             : DCDCAS
   Dagmar Lenk            : GEPOL surface, SMD
   Dimitrios Liakos       : Extrapolation schemes; Compound Job, initial MDCI parallelization
   Dimitrios Manganas     : Further ROCIS development; embedding schemes
   Dimitrios Pantazis     : SARC Basis sets
   Taras Petrenko         : DFT Hessian,TD-DFT gradient, ASA, ECA, R-Raman, ABS, FL, XAS/XES, NRVS
   Peter Pinski           : DLPNO-MP2, DLPNO-MP2 Gradient
   Christoph Reimann      : Effective Core Potentials
   Marius Retegan         : Local ZFS, SOC
   Christoph Riplinger    : Optimizer, TS searches, QM/MM, DLPNO-CCSD(T), (RO)-DLPNO pert. Triples
   Tobias Risthaus        : Range-separated hybrids, TD-DFT gradient, RPA, STAB
   Michael Roemelt        : Original ROCIS implementation
   Masaaki Saitow         : Open-shell DLPNO-CCSD energy and density
   Barbara Sandhoefer     : DKH picture change effects
   Avijit Sen             : IP-ROCIS
   Kantharuban Sivalingam : CASSCF convergence, NEVPT2, FIC-MRCI
   Bernardo de Souza      : ESD, SOC TD-DFT
   Georgi Stoychev        : AutoAux, RI-MP2 NMR
   Willem Van den Heuvel  : Paramagnetic NMR
   Boris Wezisla          : Elementary symmetry handling
   Frank Wennmohs         : Technical directorship


 We gratefully acknowledge several colleagues who have allowed us to
 interface, adapt or use parts of their codes:
   Stefan Grimme, W. Hujo, H. Kruse,             : VdW corrections, initial TS optimization,
                  C. Bannwarth                     DFT functionals, gCP, sTDA/sTD-DF
   Ed Valeev, F. Pavosevic, A. Kumar             : LibInt (2-el integral package), F12 methods
   Garnet Chan, S. Sharma, J. Yang, R. Olivares  : DMRG
   Ulf Ekstrom                                   : XCFun DFT Library
   Mihaly Kallay                                 : mrcc  (arbitrary order and MRCC methods)
   Andreas Klamt, Michael Diedenhofen            : otool_cosmo (COSMO solvation model)
   Jiri Pittner, Ondrej Demel                    : Mk-CCSD
   Frank Weinhold                                : gennbo (NPA and NBO analysis)
   Christopher J. Cramer and Donald G. Truhlar   : smd solvation model
   Lars Goerigk                                  : TD-DFT with DH, B97 family of functionals
   V. Asgeirsson, H. Jonsson                     : NEB implementation
   FAccTs GmbH                                   : IRC, NEB, NEB-TS, Multilevel, MM, QM/MM, CI optimization
   S Lehtola, MJT Oliveira, MAL Marques          : LibXC Library


 Your calculation uses the libint2 library for the computation of 2-el integrals
 For citations please refer to: http://libint.valeyev.net

 Your ORCA version has been built with support for libXC version: 4.2.3
 For citations please refer to: https://tddft.org/programs/libxc/

 This ORCA versions uses:
   CBLAS   interface :  Fast vector & matrix operations
   LAPACKE interface :  Fast linear algebra routines
   SCALAPACK package :  Parallel linear algebra routines


Your calculation utilizes the atom-pairwise dispersion correction
with the zero-damping scheme (D30)
Cite in your paper:
S.Grimme, J.Antony, S.Ehrlich and H.Krieg, J.Chem.Phys., 132, (2010), 154104 
   

XCFun DFT library Copyright 2009-2010 Ulf Ekstrom and contributors.
See http://admol.org/xcfun for more information. This is free soft-
ware; see the source code for copying conditions. There is ABSOLUTELY
NO WARRANTY; not even for MERCHANTABILITY or FITNESS FOR A PARTICULAR
PURPOSE. For details see the documentation. Scientific users of this 
library should cite U. Ekstrom, L. Visscher, R. Bast, A. J. Thorvald-
sen and K. Ruud; J.Chem.Theor.Comp. 2010, DOI: 10.1021/ct100117s
XCFun Version 0.99 
----- Orbital basis set information -----
Your calculation utilizes the basis: def2-SVP
   F. Weigend and R. Ahlrichs, Phys. Chem. Chem. Phys. 7, 3297 (2005).

================================================================================
                                        WARNINGS
                       Please study these warnings very carefully!
================================================================================


INFO   : the flag for use of LIBINT has been found!

================================================================================
                                       INPUT FILE
================================================================================
NAME = config_5638.inp
|  1> ! wB97X-D3 SP def2-SVP
|  2> %pal
|  3> nprocs 24
|  4> end
|  5> 
|  6> * xyz 0 1
|  7> S 	 -95.5921 	 9.89796 	 -119.689 	 
|  8> C 	 -95.0315 	 9.85042 	 -118.041 	 
|  9> C 	 -95.6242 	 10.8236 	 -117.264 	 
| 10> C 	 -96.5383 	 11.6387 	 -118.02 	 
| 11> C 	 -96.6832 	 11.2811 	 -119.366 	 
| 12> H 	 -97.2262 	 12.3721 	 -117.579 	 
| 13> C 	 -95.2221 	 11.0977 	 -115.891 	 
| 14> H 	 -94.5498 	 11.9968 	 -115.864 	 
| 15> H 	 -94.5869 	 10.2642 	 -115.58 	 
| 16> C 	 -96.3915 	 11.2728 	 -114.906 	 
| 17> H 	 -95.8799 	 11.3452 	 -113.927 	 
| 18> H 	 -96.9428 	 12.2356 	 -114.84 	 
| 19> C 	 -97.3402 	 10.0202 	 -114.894 	 
| 20> H 	 -97.8385 	 9.85771 	 -113.895 	 
| 21> H 	 -98.1922 	 10.132 	 -115.509 	 
| 22> H 	 -96.7609 	 9.1075 	 -115.126 	 
| 23> S 	 -96.6913 	 12.4094 	 -121.934 	 
| 24> C 	 -97.9849 	 13.482 	 -122.333 	 
| 25> C 	 -98.9762 	 13.4453 	 -121.447 	 
| 26> C 	 -98.6978 	 12.7045 	 -120.249 	 
| 27> C 	 -97.4521 	 12.0271 	 -120.309 	 
| 28> H 	 -99.9396 	 14.0476 	 -121.546 	 
| 29> C 	 -99.6272 	 12.5502 	 -119.053 	 
| 30> H 	 -99.4265 	 11.7611 	 -118.353 	 
| 31> H 	 -100.528 	 12.2377 	 -119.531 	 
| 32> C 	 -99.6952 	 13.8878 	 -118.278 	 
| 33> H 	 -100.01 	 14.6656 	 -118.985 	 
| 34> H 	 -98.6478 	 14.2421 	 -117.982 	 
| 35> C 	 -100.551 	 13.8314 	 -117.019 	 
| 36> H 	 -101.018 	 12.8146 	 -116.993 	 
| 37> H 	 -101.289 	 14.7147 	 -116.934 	 
| 38> H 	 -99.8727 	 13.8953 	 -116.133 	 
| 39> H 	 -94.3366 	 9.23513 	 -117.597 	 
| 40> H 	 -98.0836 	 14.0628 	 -123.229 	 
| 41> *
| 42> 
| 43>                          ****END OF INPUT****
================================================================================

                       ****************************
                       * Single Point Calculation *
                       ****************************

---------------------------------
CARTESIAN COORDINATES (ANGSTROEM)
---------------------------------
  S    -95.592100    9.897960  -119.689000
  C    -95.031500    9.850420  -118.041000
  C    -95.624200   10.823600  -117.264000
  C    -96.538300   11.638700  -118.020000
  C    -96.683200   11.281100  -119.366000
  H    -97.226200   12.372100  -117.579000
  C    -95.222100   11.097700  -115.891000
  H    -94.549800   11.996800  -115.864000
  H    -94.586900   10.264200  -115.580000
  C    -96.391500   11.272800  -114.906000
  H    -95.879900   11.345200  -113.927000
  H    -96.942800   12.235600  -114.840000
  C    -97.340200   10.020200  -114.894000
  H    -97.838500    9.857710  -113.895000
  H    -98.192200   10.132000  -115.509000
  H    -96.760900    9.107500  -115.126000
  S    -96.691300   12.409400  -121.934000
  C    -97.984900   13.482000  -122.333000
  C    -98.976200   13.445300  -121.447000
  C    -98.697800   12.704500  -120.249000
  C    -97.452100   12.027100  -120.309000
  H    -99.939600   14.047600  -121.546000
  C    -99.627200   12.550200  -119.053000
  H    -99.426500   11.761100  -118.353000
  H    -100.528000   12.237700  -119.531000
  C    -99.695200   13.887800  -118.278000
  H    -100.010000   14.665600  -118.985000
  H    -98.647800   14.242100  -117.982000
  C    -100.551000   13.831400  -117.019000
  H    -101.018000   12.814600  -116.993000
  H    -101.289000   14.714700  -116.934000
  H    -99.872700   13.895300  -116.133000
  H    -94.336600    9.235130  -117.597000
  H    -98.083600   14.062800  -123.229000

----------------------------
CARTESIAN COORDINATES (A.U.)
----------------------------
  NO LB      ZA    FRAG     MASS         X           Y           Z
   0 S    16.0000    0    32.060  -180.642890   18.704434  -226.179431
   1 C     6.0000    0    12.011  -179.583509   18.614596  -223.065163
   2 C     6.0000    0    12.011  -180.703550   20.453640  -221.596845
   3 C     6.0000    0    12.011  -182.430948   21.993956  -223.025478
   4 C     6.0000    0    12.011  -182.704770   21.318189  -225.569050
   5 H     1.0000    0     1.008  -183.730891   23.379881  -222.192109
   6 C     6.0000    0    12.011  -179.943691   20.971614  -219.002251
   7 H     1.0000    0     1.008  -178.673228   22.670666  -218.951229
   8 H     1.0000    0     1.008  -178.743337   19.396527  -218.414547
   9 C     6.0000    0    12.011  -182.153537   21.302505  -217.140871
  10 H     1.0000    0     1.008  -181.186753   21.439321  -215.290829
  11 H     1.0000    0     1.008  -183.195343   23.121933  -217.016149
  12 C     6.0000    0    12.011  -183.946320   18.935434  -217.118194
  13 H     1.0000    0     1.008  -184.887970   18.628372  -215.230358
  14 H     1.0000    0     1.008  -185.556366   19.146705  -218.280376
  15 H     1.0000    0     1.008  -182.851601   17.210681  -217.556611
  16 S    16.0000    0    32.060  -182.720077   23.450367  -230.421866
  17 C     6.0000    0    12.011  -185.164626   25.477288  -231.175867
  18 C     6.0000    0    12.011  -187.037912   25.407935  -229.501570
  19 C     6.0000    0    12.011  -186.511812   24.008026  -227.237678
  20 C     6.0000    0    12.011  -184.157780   22.727925  -227.351061
  21 H     1.0000    0     1.008  -188.858474   26.546117  -229.688653
  22 C     6.0000    0    12.011  -188.268123   23.716441  -224.977565
  23 H     1.0000    0     1.008  -187.888855   22.225258  -223.654757
  24 H     1.0000    0     1.008  -189.970389   23.125902  -225.880855
  25 C     6.0000    0    12.011  -188.396625   26.244139  -223.513028
  26 H     1.0000    0     1.008  -188.991511   27.713968  -224.849064
  27 H     1.0000    0     1.008  -186.417326   26.913669  -222.953669
  28 C     6.0000    0    12.011  -190.013852   26.137558  -221.133862
  29 H     1.0000    0     1.008  -190.896355   24.216085  -221.084730
  30 H     1.0000    0     1.008  -191.408470   27.806753  -220.973236
  31 H     1.0000    0     1.008  -188.732051   26.258312  -219.459565
  32 H     1.0000    0     1.008  -178.270338   17.451867  -222.226124
  33 H     1.0000    0     1.008  -185.351142   26.574841  -232.869062

--------------------------------
INTERNAL COORDINATES (ANGSTROEM)
--------------------------------
 S      0   0   0     0.000000000000     0.00000000     0.00000000
 C      1   0   0     1.741389218871     0.00000000     0.00000000
 C      2   1   0     1.379166995835   112.05876163     0.00000000
 C      3   2   1     1.439271628290   112.12525070   359.17835812
 C      4   3   2     1.400210616300   115.21518945     1.61089168
 H      4   3   2     1.097981315870   124.41732022   170.61826044
 C      3   2   1     1.456689472743   123.03589381   187.11109242
 H      7   3   2     1.122985796883   109.78974688    99.97507355
 H      7   3   2     1.093125011149   106.56397709   346.98334794
 C      7   3   2     1.538954635459   114.51498706   224.80050604
 H     10   7   3     1.106985690964   102.84473690   173.40212988
 H     10   7   3     1.111427698953   120.89635539   279.65995872
 C     10   7   3     1.571363245720   111.89793920    56.64195363
 H     13  10   7     1.128143115965   112.84567490   150.09589325
 H     13  10   7     1.056706316817   113.45339146   262.99821058
 H     13  10   7     1.105637273250   109.88320278    30.31859559
 S      5   4   3     2.804951069092   141.04553925   228.18358179
 C     17   5   4     1.727157410313   117.61127029   293.19709405
 C     18  17   5     1.330044578200   112.78019317   347.71051046
 C     19  18  17     1.435790792560   115.18479118     9.39241847
 C     20  19  18     1.419238968603   112.40675681   353.58392355
 H     19  18  17     1.140484918796   123.86172802   182.36744570
 C     20  19  18     1.522500853859   126.11263730   177.30188120
 H     23  20  19     1.073759423707   118.19609208   163.00042779
 H     23  20  19     1.066574371528   101.13975150    50.85315508
 C     23  20  19     1.547392245037   109.43009560   287.78357703
 H     26  23  20     1.097233284220   107.61727330    55.92778068
 H     26  23  20     1.144635859127   110.90809954   305.01880234
 C     26  23  20     1.523369817214   113.99197967   182.65015148
 H     29  26  23     1.119217244327   106.69283137   355.28798379
 H     29  26  23     1.154161119602   113.06332227   227.55856408
 H     29  26  23     1.117662784564   108.18566005   109.72055612
 H      2   1   3     1.028884733146   129.95194641   181.35194926
 H     18  17   5     1.072327529256   126.75016633   173.77261170

---------------------------
INTERNAL COORDINATES (A.U.)
---------------------------
 S      0   0   0     0.000000000000     0.00000000     0.00000000
 C      1   0   0     3.290748716229     0.00000000     0.00000000
 C      2   1   0     2.606247915071   112.05876163     0.00000000
 C      3   2   1     2.719829209791   112.12525070   359.17835812
 C      4   3   2     2.646014594617   115.21518945     1.61089168
 H      4   3   2     2.074883987157   124.41732022   170.61826044
 C      3   2   1     2.752744165650   123.03589381   187.11109242
 H      7   3   2     2.122135608391   109.78974688    99.97507355
 H      7   3   2     2.065706901212   106.56397709   346.98334794
 C      7   3   2     2.908202793546   114.51498706   224.80050604
 H     10   7   3     2.091899790092   102.84473690   173.40212988
 H     10   7   3     2.100293968675   120.89635539   279.65995872
 C     10   7   3     2.969446191321   111.89793920    56.64195363
 H     13  10   7     2.131881529043   112.84567490   150.09589325
 H     13  10   7     1.996885542768   113.45339146   262.99821058
 H     13  10   7     2.089351649898   109.88320278    30.31859559
 S      5   4   3     5.300589339633   141.04553925   228.18358179
 C     17   5   4     3.263854495665   117.61127029   293.19709405
 C     18  17   5     2.513419998705   112.78019317   347.71051046
 C     19  18  17     2.713251383544   115.18479118     9.39241847
 C     20  19  18     2.681972969248   112.40675681   353.58392355
 H     19  18  17     2.155204156391   123.86172802   182.36744570
 C     20  19  18     2.877109652454   126.11263730   177.30188120
 H     23  20  19     2.029111244524   118.19609208   163.00042779
 H     23  20  19     2.015533463647   101.13975150    50.85315508
 C     23  20  19     2.924147564873   109.43009560   287.78357703
 H     26  23  20     2.073470412199   107.61727330    55.92778068
 H     26  23  20     2.163048296816   110.90809954   305.01880234
 C     26  23  20     2.878751755217   113.99197967   182.65015148
 H     29  26  23     2.115014076141   106.69283137   355.28798379
 H     29  26  23     2.181048430467   113.06332227   227.55856408
 H     29  26  23     2.112076572902   108.18566005   109.72055612
 H      2   1   3     1.944310369018   129.95194641   181.35194926
 H     18  17   5     2.026405356158   126.75016633   173.77261170

---------------------
BASIS SET INFORMATION
---------------------
There are 3 groups of distinct atoms

 Group   1 Type S   : 10s7p1d contracted to 4s3p1d pattern {5311/511/1}
 Group   2 Type C   : 7s4p1d contracted to 3s2p1d pattern {511/31/1}
 Group   3 Type H   : 4s1p contracted to 2s1p pattern {31/1}

Atom   0S    basis set group =>   1
Atom   1C    basis set group =>   2
Atom   2C    basis set group =>   2
Atom   3C    basis set group =>   2
Atom   4C    basis set group =>   2
Atom   5H    basis set group =>   3
Atom   6C    basis set group =>   2
Atom   7H    basis set group =>   3
Atom   8H    basis set group =>   3
Atom   9C    basis set group =>   2
Atom  10H    basis set group =>   3
Atom  11H    basis set group =>   3
Atom  12C    basis set group =>   2
Atom  13H    basis set group =>   3
Atom  14H    basis set group =>   3
Atom  15H    basis set group =>   3
Atom  16S    basis set group =>   1
Atom  17C    basis set group =>   2
Atom  18C    basis set group =>   2
Atom  19C    basis set group =>   2
Atom  20C    basis set group =>   2
Atom  21H    basis set group =>   3
Atom  22C    basis set group =>   2
Atom  23H    basis set group =>   3
Atom  24H    basis set group =>   3
Atom  25C    basis set group =>   2
Atom  26H    basis set group =>   3
Atom  27H    basis set group =>   3
Atom  28C    basis set group =>   2
Atom  29H    basis set group =>   3
Atom  30H    basis set group =>   3
Atom  31H    basis set group =>   3
Atom  32H    basis set group =>   3
Atom  33H    basis set group =>   3


           ************************************************************
           *        Program running with 24 parallel MPI-processes    *
           *              working on a common directory               *
           ************************************************************
------------------------------------------------------------------------------
                           ORCA GTO INTEGRAL CALCULATION
------------------------------------------------------------------------------

                         BASIS SET STATISTICS AND STARTUP INFO

 # of primitive gaussian shells          ...  294
 # of primitive gaussian functions       ...  534
 # of contracted shells                  ...  154
 # of contracted basis functions         ...  322
 Highest angular momentum                ...    2
 Maximum contraction depth               ...    5
 Integral package used                   ... LIBINT
 Integral threshhold            Thresh   ...  1.000e-10
 Primitive cut-off              TCut     ...  1.000e-11


------------------------------ INTEGRAL EVALUATION ----------------------------


 * One electron integrals 
 Pre-screening matrix                    ... done
 Shell pair data                         ... done (   0.003 sec)



           ************************************************************
           *        Program running with 24 parallel MPI-processes    *
           *              working on a common directory               *
           ************************************************************
-------------------------------------------------------------------------------
                                 ORCA SCF
-------------------------------------------------------------------------------

------------
SCF SETTINGS
------------
Hamiltonian:
 Density Functional     Method          .... DFT(GTOs)
 Exchange Functional    Exchange        .... WB97X-D3
 Correlation Functional Correlation     .... WB97X-D3
 Gradients option       PostSCFGGA      .... off
 Hybrid DFT is turned on
   Fraction HF Exchange ScalHFX         ....  0.195728
   Scaling of DF-GGA-X  ScalDFX         ....  0.000000
   Scaling of DF-GGA-C  ScalDFC         ....  1.000000
   Scaling of DF-LDA-C  ScalLDAC        ....  1.000000
   Perturbative correction              ....  0.000000
   Density functional embedding theory  .... OFF
 Long-range corrected/Screened/Range-Separated Hybrid DFT is turned on
   Amount of maximum screened exact exchange              ....  0.804272
   Range separation parameter mu (erf(mu*r12)/r12)        ....  0.250000


General Settings:
 Integral files         IntName         .... config_5638
 Hartree-Fock type      HFTyp           .... RHF
 Total Charge           Charge          ....    0
 Multiplicity           Mult            ....    1
 Number of Electrons    NEL             ....  134
 Basis Dimension        Dim             ....  322
 Nuclear Repulsion      ENuc            ....   1292.3040076855 Eh

Convergence Acceleration:
 DIIS                   CNVDIIS         .... on
   Start iteration      DIISMaxIt       ....    12
   Startup error        DIISStart       ....  0.200000
   # of expansion vecs  DIISMaxEq       ....     5
   Bias factor          DIISBfac        ....   1.050
   Max. coefficient     DIISMaxC        ....  10.000
 Newton-Raphson         CNVNR           .... off
 SOSCF                  CNVSOSCF        .... on
   Start iteration      SOSCFMaxIt      ....   150
   Startup grad/error   SOSCFStart      ....  0.003300
 Level Shifting         CNVShift        .... on
   Level shift para.    LevelShift      ....    0.2500
   Turn off err/grad.   ShiftErr        ....    0.0010
 Zerner damping         CNVZerner       .... off
 Static damping         CNVDamp         .... on
   Fraction old density DampFac         ....    0.7000
   Max. Damping (<1)    DampMax         ....    0.9800
   Min. Damping (>=0)   DampMin         ....    0.0000
   Turn off err/grad.   DampErr         ....    0.1000
 Fernandez-Rico         CNVRico         .... off

SCF Procedure:
 Maximum # iterations   MaxIter         ....   125
 SCF integral mode      SCFMode         .... Direct
   Integral package                     .... LIBINT
 Reset frequency        DirectResetFreq ....    20
 Integral Threshold     Thresh          ....  1.000e-10 Eh
 Primitive CutOff       TCut            ....  1.000e-11 Eh

Convergence Tolerance:
 Convergence Check Mode ConvCheckMode   .... Total+1el-Energy
 Convergence forced     ConvForced      .... 0
 Energy Change          TolE            ....  1.000e-06 Eh
 1-El. energy change                    ....  1.000e-03 Eh
 Orbital Gradient       TolG            ....  5.000e-05
 Orbital Rotation angle TolX            ....  5.000e-05
 DIIS Error             TolErr          ....  1.000e-06


Diagonalization of the overlap matrix:
Smallest eigenvalue                        ... 6.373e-04
Time for diagonalization                   ...    0.014 sec
Threshold for overlap eigenvalues          ... 1.000e-08
Number of eigenvalues below threshold      ... 0
Time for construction of square roots      ...    0.026 sec
Total time needed                          ...    0.041 sec

-------------------
DFT GRID GENERATION
-------------------

General Integration Accuracy     IntAcc      ...  4.340
Radial Grid Type                 RadialGrid  ... Gauss-Chebyshev
Angular Grid (max. acc.)         AngularGrid ... Lebedev-110
Angular grid pruning method      GridPruning ... 3 (G Style)
Weight generation scheme         WeightScheme... Becke
Basis function cutoff            BFCut       ...    1.0000e-10
Integration weight cutoff        WCut        ...    1.0000e-14
Grids for H and He will be reduced by one unit

# of grid points (after initial pruning)     ...  41088 (   0.0 sec)
# of grid points (after weights+screening)   ...  36879 (   0.0 sec)
nearest neighbour list constructed           ...    0.0 sec
Grid point re-assignment to atoms done       ...    0.0 sec
Grid point division into batches done        ...    0.0 sec
Reduced shell lists constructed in    0.1 sec

Total number of grid points                  ...    36879
Total number of batches                      ...      594
Average number of points per batch           ...       62
Average number of grid points per atom       ...     1085
Average number of shells per batch           ...    67.23 (43.66%)
Average number of basis functions per batch  ...   132.00 (40.99%)
Average number of large shells per batch     ...    42.62 (63.39%)
Average number of large basis fcns per batch ...    88.92 (67.37%)
Maximum spatial batch extension              ...  23.38, 16.79, 12.96 au
Average spatial batch extension              ...   0.22,  0.21,  0.18 au

Time for grid setup =    0.149 sec

------------------------------
INITIAL GUESS: MODEL POTENTIAL
------------------------------
Loading Hartree-Fock densities                     ... done
Calculating cut-offs                               ... done
Setting up the integral package                    ... done
Initializing the effective Hamiltonian             ... done
Starting the Coulomb interaction                   ... done (   0.0 sec)
Reading the grid                                   ... done
Mapping shells                                     ... done
Starting the XC term evaluation                    ... done (   0.0 sec)
  promolecular density results
     # of electrons  =    133.981546647
     EX              =   -126.677676730
     EC              =     -4.615537104
     EX+EC           =   -131.293213834
Transforming the Hamiltonian                       ... done (   0.0 sec)
Diagonalizing the Hamiltonian                      ... done (   0.0 sec)
Back transforming the eigenvectors                 ... done (   0.0 sec)
Now organizing SCF variables                       ... done
                      ------------------
                      INITIAL GUESS DONE (   0.3 sec)
                      ------------------
--------------
SCF ITERATIONS
--------------
ITER       Energy         Delta-E        Max-DP      RMS-DP      [F,P]     Damp
               ***  Starting incremental Fock matrix formation  ***
  0  -1339.4185812019   0.000000000000 0.06333896  0.00156463  0.1569791 0.7000
  1  -1339.6052181625  -0.186636960596 0.04234788  0.00113608  0.0940983 0.7000
                               ***Turning on DIIS***
  2  -1339.6943457479  -0.089127585457 0.07310512  0.00212861  0.0482723 0.0000
  3  -1339.8285448834  -0.134199135459 0.04178782  0.00097285  0.0428915 0.0000
  4  -1339.8583129469  -0.029768063555 0.00721197  0.00020191  0.0071483 0.0000
                      *** Initiating the SOSCF procedure ***
                           *** Shutting down DIIS ***
                      *** Re-Reading the Fockian *** 
                      *** Removing any level shift *** 
ITER      Energy       Delta-E        Grad      Rot      Max-DP    RMS-DP
  5  -1339.85925821  -0.0009452640  0.001632  0.001632  0.002663  0.000098
               *** Restarting incremental Fock matrix formation ***
  6  -1339.85946117  -0.0002029599  0.001439  0.004069  0.002568  0.000065
  7  -1339.85953565  -0.0000744777  0.000792  0.005173  0.002476  0.000068
  8  -1339.85955511  -0.0000194664  0.000512  0.000934  0.000914  0.000023
  9  -1339.85956165  -0.0000065365  0.000161  0.000452  0.000388  0.000010
 10  -1339.85956219  -0.0000005393  0.000076  0.000271  0.000186  0.000004
                 **** Energy Check signals convergence ****
              ***Rediagonalizing the Fockian in SOSCF/NRSCF***

               *****************************************************
               *                     SUCCESS                       *
               *           SCF CONVERGED AFTER  11 CYCLES          *
               *****************************************************

Setting up the final grid:

General Integration Accuracy     IntAcc      ...  4.670
Radial Grid Type                 RadialGrid  ... Gauss-Chebyshev
Angular Grid (max. acc.)         AngularGrid ... Lebedev-302
Angular grid pruning method      GridPruning ... 3 (G Style)
Weight generation scheme         WeightScheme... Becke
Basis function cutoff            BFCut       ...    1.0000e-10
Integration weight cutoff        WCut        ...    1.0000e-14
Grids for H and He will be reduced by one unit

# of grid points (after initial pruning)     ... 161752 (   0.0 sec)
# of grid points (after weights+screening)   ... 142343 (   0.1 sec)
nearest neighbour list constructed           ...    0.0 sec
Grid point re-assignment to atoms done       ...    0.0 sec
Grid point division into batches done        ...    0.5 sec
Reduced shell lists constructed in    0.5 sec

Total number of grid points                  ...   142343
Total number of batches                      ...     2240
Average number of points per batch           ...       63
Average number of grid points per atom       ...     4187
Average number of shells per batch           ...    60.48 (39.28%)
Average number of basis functions per batch  ...   118.82 (36.90%)
Average number of large shells per batch     ...    36.27 (59.97%)
Average number of large basis fcns per batch ...    75.33 (63.39%)
Maximum spatial batch extension              ...  15.55, 14.35, 11.79 au
Average spatial batch extension              ...   0.13,  0.13,  0.12 au

Final grid set up in    0.9 sec
Final integration                            ... done (   0.3 sec)
Change in XC energy                          ...     0.007255552
Integrated number of electrons               ...   134.000268010
Previous integrated no of electrons          ...   133.997845553

----------------
TOTAL SCF ENERGY
----------------

Total Energy       :        -1339.85230697 Eh          -36459.23482 eV

Components:
Nuclear Repulsion  :         1292.30400769 Eh           35165.37982 eV
Electronic Energy  :        -2632.15631466 Eh          -71624.61465 eV
One Electron Energy:        -4401.22733729 Eh         -119763.48451 eV
Two Electron Energy:         1769.07102263 Eh           48138.86986 eV

Virial components:
Potential Energy   :        -2671.08162815 Eh          -72683.82628 eV
Kinetic Energy     :         1331.22932117 Eh           36224.59145 eV
Virial Ratio       :            2.00647746


DFT components:
N(Alpha)           :       67.000134004795 electrons
N(Beta)            :       67.000134004795 electrons
N(Total)           :      134.000268009591 electrons
E(XC)              :      -94.194176571185 Eh       
DFET-embed. en.    :        0.000000000000 Eh       

---------------
SCF CONVERGENCE
---------------

  Last Energy change         ...   -3.3547e-07  Tolerance :   1.0000e-06
  Last MAX-Density change    ...    2.9184e-05  Tolerance :   1.0000e-05
  Last RMS-Density change    ...    7.1339e-07  Tolerance :   1.0000e-06
  Last Orbital Gradient      ...    7.8429e-06  Tolerance :   5.0000e-05
  Last Orbital Rotation      ...    2.1502e-05  Tolerance :   5.0000e-05

             **** THE GBW FILE WAS UPDATED (config_5638.gbw) ****
             **** DENSITY FILE WAS UPDATED (config_5638.scfp) ****
             **** ENERGY FILE WAS UPDATED (config_5638.en.tmp) ****
             **** THE GBW FILE WAS UPDATED (config_5638.gbw) ****
             **** DENSITY FILE WAS UPDATED (config_5638.scfp) ****
----------------
ORBITAL ENERGIES
----------------

  NO   OCC          E(Eh)            E(eV) 
   0   2.0000     -88.968520     -2420.9565 
   1   2.0000     -88.962018     -2420.7796 
   2   2.0000     -10.333715      -281.1947 
   3   2.0000     -10.333399      -281.1861 
   4   2.0000     -10.313281      -280.6386 
   5   2.0000     -10.309539      -280.5368 
   6   2.0000     -10.307325      -280.4766 
   7   2.0000     -10.296600      -280.1847 
   8   2.0000     -10.295410      -280.1523 
   9   2.0000     -10.295132      -280.1448 
  10   2.0000     -10.295049      -280.1425 
  11   2.0000     -10.294385      -280.1245 
  12   2.0000     -10.293795      -280.1084 
  13   2.0000     -10.292288      -280.0674 
  14   2.0000     -10.291874      -280.0561 
  15   2.0000     -10.281972      -279.7867 
  16   2.0000      -8.082290      -219.9303 
  17   2.0000      -8.076348      -219.7686 
  18   2.0000      -6.040970      -164.3832 
  19   2.0000      -6.036937      -164.2734 
  20   2.0000      -6.034967      -164.2198 
  21   2.0000      -6.032912      -164.1639 
  22   2.0000      -6.030997      -164.1118 
  23   2.0000      -6.026914      -164.0007 
  24   2.0000      -1.001462       -27.2512 
  25   2.0000      -0.982445       -26.7337 
  26   2.0000      -0.914482       -24.8843 
  27   2.0000      -0.911292       -24.7975 
  28   2.0000      -0.873330       -23.7645 
  29   2.0000      -0.848085       -23.0776 
  30   2.0000      -0.839893       -22.8547 
  31   2.0000      -0.816157       -22.2087 
  32   2.0000      -0.782720       -21.2989 
  33   2.0000      -0.771288       -20.9878 
  34   2.0000      -0.716314       -19.4919 
  35   2.0000      -0.700423       -19.0595 
  36   2.0000      -0.696552       -18.9541 
  37   2.0000      -0.654311       -17.8047 
  38   2.0000      -0.637206       -17.3392 
  39   2.0000      -0.619371       -16.8539 
  40   2.0000      -0.601790       -16.3755 
  41   2.0000      -0.564691       -15.3660 
  42   2.0000      -0.561293       -15.2736 
  43   2.0000      -0.556781       -15.1508 
  44   2.0000      -0.531367       -14.4592 
  45   2.0000      -0.526667       -14.3313 
  46   2.0000      -0.518288       -14.1033 
  47   2.0000      -0.514811       -14.0087 
  48   2.0000      -0.506113       -13.7720 
  49   2.0000      -0.499224       -13.5846 
  50   2.0000      -0.494359       -13.4522 
  51   2.0000      -0.479618       -13.0511 
  52   2.0000      -0.469986       -12.7890 
  53   2.0000      -0.464472       -12.6389 
  54   2.0000      -0.455994       -12.4082 
  55   2.0000      -0.452102       -12.3023 
  56   2.0000      -0.442352       -12.0370 
  57   2.0000      -0.441295       -12.0082 
  58   2.0000      -0.436843       -11.8871 
  59   2.0000      -0.430269       -11.7082 
  60   2.0000      -0.417956       -11.3732 
  61   2.0000      -0.408430       -11.1139 
  62   2.0000      -0.401729       -10.9316 
  63   2.0000      -0.357051        -9.7158 
  64   2.0000      -0.330845        -9.0027 
  65   2.0000      -0.326107        -8.8738 
  66   2.0000      -0.284125        -7.7314 
  67   0.0000       0.022891         0.6229 
  68   0.0000       0.071758         1.9526 
  69   0.0000       0.113441         3.0869 
  70   0.0000       0.114113         3.1052 
  71   0.0000       0.121663         3.3106 
  72   0.0000       0.132055         3.5934 
  73   0.0000       0.144166         3.9229 
  74   0.0000       0.149169         4.0591 
  75   0.0000       0.157352         4.2818 
  76   0.0000       0.165310         4.4983 
  77   0.0000       0.168270         4.5789 
  78   0.0000       0.180478         4.9111 
  79   0.0000       0.191024         5.1980 
  80   0.0000       0.195596         5.3224 
  81   0.0000       0.200980         5.4690 
  82   0.0000       0.208637         5.6773 
  83   0.0000       0.213048         5.7973 
  84   0.0000       0.214288         5.8311 
  85   0.0000       0.219760         5.9800 
  86   0.0000       0.228785         6.2255 
  87   0.0000       0.236913         6.4467 
  88   0.0000       0.249656         6.7935 
  89   0.0000       0.261183         7.1071 
  90   0.0000       0.266270         7.2456 
  91   0.0000       0.278293         7.5727 
  92   0.0000       0.289504         7.8778 
  93   0.0000       0.300949         8.1892 
  94   0.0000       0.312731         8.5098 
  95   0.0000       0.323664         8.8073 
  96   0.0000       0.336180         9.1479 
  97   0.0000       0.337519         9.1843 
  98   0.0000       0.356560         9.7025 
  99   0.0000       0.368517        10.0279 
 100   0.0000       0.378596        10.3021 
 101   0.0000       0.400571        10.9001 
 102   0.0000       0.417061        11.3488 
 103   0.0000       0.428408        11.6576 
 104   0.0000       0.434873        11.8335 
 105   0.0000       0.445049        12.1104 
 106   0.0000       0.462360        12.5815 
 107   0.0000       0.474751        12.9186 
 108   0.0000       0.488517        13.2932 
 109   0.0000       0.496090        13.4993 
 110   0.0000       0.502480        13.6732 
 111   0.0000       0.514377        13.9969 
 112   0.0000       0.519472        14.1355 
 113   0.0000       0.526720        14.3328 
 114   0.0000       0.534913        14.5557 
 115   0.0000       0.539327        14.6758 
 116   0.0000       0.544218        14.8089 
 117   0.0000       0.551738        15.0135 
 118   0.0000       0.568499        15.4696 
 119   0.0000       0.582937        15.8625 
 120   0.0000       0.584916        15.9164 
 121   0.0000       0.595281        16.1984 
 122   0.0000       0.601063        16.3558 
 123   0.0000       0.612912        16.6782 
 124   0.0000       0.621116        16.9014 
 125   0.0000       0.628551        17.1037 
 126   0.0000       0.636394        17.3172 
 127   0.0000       0.644857        17.5475 
 128   0.0000       0.657896        17.9023 
 129   0.0000       0.668224        18.1833 
 130   0.0000       0.671585        18.2748 
 131   0.0000       0.691958        18.8291 
 132   0.0000       0.695758        18.9325 
 133   0.0000       0.702840        19.1252 
 134   0.0000       0.705686        19.2027 
 135   0.0000       0.712640        19.3919 
 136   0.0000       0.720847        19.6152 
 137   0.0000       0.722334        19.6557 
 138   0.0000       0.728259        19.8169 
 139   0.0000       0.737781        20.0760 
 140   0.0000       0.738861        20.1054 
 141   0.0000       0.742819        20.2131 
 142   0.0000       0.745247        20.2792 
 143   0.0000       0.752217        20.4689 
 144   0.0000       0.755517        20.5587 
 145   0.0000       0.760800        20.7024 
 146   0.0000       0.763817        20.7845 
 147   0.0000       0.765403        20.8277 
 148   0.0000       0.771996        21.0071 
 149   0.0000       0.777136        21.1469 
 150   0.0000       0.779142        21.2015 
 151   0.0000       0.783221        21.3125 
 152   0.0000       0.787366        21.4253 
 153   0.0000       0.794587        21.6218 
 154   0.0000       0.797216        21.6934 
 155   0.0000       0.800763        21.7899 
 156   0.0000       0.805209        21.9109 
 157   0.0000       0.812211        22.1014 
 158   0.0000       0.818384        22.2694 
 159   0.0000       0.826828        22.4991 
 160   0.0000       0.834373        22.7044 
 161   0.0000       0.838730        22.8230 
 162   0.0000       0.842925        22.9371 
 163   0.0000       0.847555        23.0631 
 164   0.0000       0.855265        23.2729 
 165   0.0000       0.862031        23.4571 
 166   0.0000       0.879642        23.9363 
 167   0.0000       0.892661        24.2906 
 168   0.0000       0.895988        24.3811 
 169   0.0000       0.910818        24.7846 
 170   0.0000       0.915523        24.9127 
 171   0.0000       0.921854        25.0849 
 172   0.0000       0.927407        25.2360 
 173   0.0000       0.935829        25.4652 
 174   0.0000       0.952284        25.9130 
 175   0.0000       0.961474        26.1630 
 176   0.0000       0.967854        26.3366 
 177   0.0000       0.990513        26.9532 
 178   0.0000       0.999508        27.1980 
 179   0.0000       1.034442        28.1486 
 180   0.0000       1.045740        28.4560 
 181   0.0000       1.073624        29.2148 
 182   0.0000       1.096076        29.8258 
 183   0.0000       1.104546        30.0562 
 184   0.0000       1.114801        30.3353 
 185   0.0000       1.128490        30.7078 
 186   0.0000       1.149993        31.2929 
 187   0.0000       1.176350        32.0101 
 188   0.0000       1.200276        32.6612 
 189   0.0000       1.215900        33.0863 
 190   0.0000       1.229655        33.4606 
 191   0.0000       1.236683        33.6518 
 192   0.0000       1.255244        34.1569 
 193   0.0000       1.269312        34.5397 
 194   0.0000       1.282655        34.9028 
 195   0.0000       1.301857        35.4253 
 196   0.0000       1.312527        35.7157 
 197   0.0000       1.325892        36.0794 
 198   0.0000       1.348516        36.6950 
 199   0.0000       1.384008        37.6608 
 200   0.0000       1.394219        37.9386 
 201   0.0000       1.406113        38.2623 
 202   0.0000       1.418607        38.6023 
 203   0.0000       1.449272        39.4367 
 204   0.0000       1.466582        39.9077 
 205   0.0000       1.470694        40.0196 
 206   0.0000       1.495445        40.6931 
 207   0.0000       1.505431        40.9649 
 208   0.0000       1.509243        41.0686 
 209   0.0000       1.558933        42.4207 
 210   0.0000       1.588085        43.2140 
 211   0.0000       1.605810        43.6963 
 212   0.0000       1.611928        43.8628 
 213   0.0000       1.621183        44.1146 
 214   0.0000       1.634578        44.4791 
 215   0.0000       1.647423        44.8287 
 216   0.0000       1.664552        45.2948 
 217   0.0000       1.682606        45.7860 
 218   0.0000       1.746975        47.5376 
 219   0.0000       1.755357        47.7657 
 220   0.0000       1.765518        48.0422 
 221   0.0000       1.791753        48.7561 
 222   0.0000       1.792554        48.7779 
 223   0.0000       1.810608        49.2691 
 224   0.0000       1.813706        49.3535 
 225   0.0000       1.827591        49.7313 
 226   0.0000       1.829724        49.7893 
 227   0.0000       1.840949        50.0948 
 228   0.0000       1.845659        50.2229 
 229   0.0000       1.849980        50.3405 
 230   0.0000       1.856870        50.5280 
 231   0.0000       1.870397        50.8961 
 232   0.0000       1.879036        51.1312 
 233   0.0000       1.885291        51.3014 
 234   0.0000       1.894503        51.5520 
 235   0.0000       1.899601        51.6908 
 236   0.0000       1.903073        51.7853 
 237   0.0000       1.908489        51.9326 
 238   0.0000       1.917135        52.1679 
 239   0.0000       1.939196        52.7682 
 240   0.0000       1.947037        52.9816 
 241   0.0000       1.950929        53.0875 
 242   0.0000       1.955906        53.2229 
 243   0.0000       1.963258        53.4230 
 244   0.0000       1.970449        53.6186 
 245   0.0000       1.988648        54.1139 
 246   0.0000       1.995917        54.3117 
 247   0.0000       2.003837        54.5272 
 248   0.0000       2.009853        54.6909 
 249   0.0000       2.019971        54.9662 
 250   0.0000       2.035514        55.3892 
 251   0.0000       2.052851        55.8609 
 252   0.0000       2.066268        56.2260 
 253   0.0000       2.079675        56.5908 
 254   0.0000       2.091762        56.9197 
 255   0.0000       2.114814        57.5470 
 256   0.0000       2.116231        57.5856 
 257   0.0000       2.135028        58.0971 
 258   0.0000       2.145615        58.3851 
 259   0.0000       2.154605        58.6298 
 260   0.0000       2.163875        58.8820 
 261   0.0000       2.185781        59.4781 
 262   0.0000       2.195868        59.7526 
 263   0.0000       2.214200        60.2514 
 264   0.0000       2.219393        60.3928 
 265   0.0000       2.235423        60.8290 
 266   0.0000       2.247426        61.1556 
 267   0.0000       2.255910        61.3864 
 268   0.0000       2.262736        61.5722 
 269   0.0000       2.280018        62.0425 
 270   0.0000       2.315326        63.0032 
 271   0.0000       2.330158        63.4068 
 272   0.0000       2.342155        63.7333 
 273   0.0000       2.373184        64.5776 
 274   0.0000       2.391548        65.0773 
 275   0.0000       2.406635        65.4879 
 276   0.0000       2.413934        65.6865 
 277   0.0000       2.423801        65.9550 
 278   0.0000       2.448793        66.6351 
 279   0.0000       2.459696        66.9317 
 280   0.0000       2.466767        67.1241 
 281   0.0000       2.505420        68.1759 
 282   0.0000       2.514575        68.4251 
 283   0.0000       2.530142        68.8487 
 284   0.0000       2.546477        69.2932 
 285   0.0000       2.552775        69.4645 
 286   0.0000       2.562146        69.7195 
 287   0.0000       2.586762        70.3894 
 288   0.0000       2.603504        70.8449 
 289   0.0000       2.616491        71.1984 
 290   0.0000       2.625220        71.4359 
 291   0.0000       2.648443        72.0678 
 292   0.0000       2.670746        72.6747 
 293   0.0000       2.693447        73.2924 
 294   0.0000       2.704159        73.5839 
 295   0.0000       2.731468        74.3270 
 296   0.0000       2.740757        74.5798 
 297   0.0000       2.759169        75.0808 
 298   0.0000       2.767289        75.3018 
 299   0.0000       2.788751        75.8858 
 300   0.0000       2.828705        76.9730 
 301   0.0000       2.846222        77.4496 
 302   0.0000       2.878345        78.3237 
 303   0.0000       2.936516        79.9067 
 304   0.0000       2.949950        80.2722 
 305   0.0000       2.962525        80.6144 
 306   0.0000       2.968105        80.7662 
 307   0.0000       2.988606        81.3241 
 308   0.0000       3.006852        81.8206 
 309   0.0000       3.028680        82.4146 
 310   0.0000       3.056709        83.1773 
 311   0.0000       3.062423        83.3328 
 312   0.0000       3.098725        84.3206 
 313   0.0000       3.107043        84.5469 
 314   0.0000       3.132597        85.2423 
 315   0.0000       3.144917        85.5775 
 316   0.0000       3.162398        86.0532 
 317   0.0000       3.174231        86.3752 
 318   0.0000       3.249917        88.4347 
 319   0.0000       3.263780        88.8120 
 320   0.0000       3.369334        91.6842 
 321   0.0000       3.419508        93.0495 

                    ********************************
                    * MULLIKEN POPULATION ANALYSIS *
                    ********************************

-----------------------
MULLIKEN ATOMIC CHARGES
-----------------------
   0 S :    0.115206
   1 C :   -0.073698
   2 C :   -0.099601
   3 C :    0.021312
   4 C :   -0.135336
   5 H :    0.009269
   6 C :    0.061971
   7 H :    0.054424
   8 H :    0.013543
   9 C :   -0.099394
  10 H :    0.025554
  11 H :    0.036449
  12 C :   -0.051433
  13 H :    0.033425
  14 H :    0.030237
  15 H :    0.038592
  16 S :    0.086087
  17 C :   -0.065534
  18 C :   -0.045775
  19 C :   -0.062540
  20 C :   -0.145435
  21 H :    0.040857
  22 C :    0.078869
  23 H :    0.023605
  24 H :    0.027922
  25 C :   -0.130422
  26 H :    0.027855
  27 H :    0.044331
  28 C :   -0.056225
  29 H :    0.042311
  30 H :    0.056706
  31 H :    0.036963
  32 H :    0.007741
  33 H :    0.052162
Sum of atomic charges:   -0.0000000

--------------------------------
MULLIKEN REDUCED ORBITAL CHARGES
--------------------------------
  0 S s       :     5.840229  s :     5.840229
      pz      :     3.232470  p :     9.941474
      px      :     3.368463
      py      :     3.340540
      dz2     :     0.032845  d :     0.103092
      dxz     :     0.018308
      dyz     :     0.015479
      dx2y2   :     0.017501
      dxy     :     0.018959
  1 C s       :     3.149652  s :     3.149652
      pz      :     0.839229  p :     2.889603
      px      :     1.010631
      py      :     1.039743
      dz2     :     0.009750  d :     0.034443
      dxz     :     0.008410
      dyz     :     0.007185
      dx2y2   :     0.003945
      dxy     :     0.005152
  2 C s       :     3.081666  s :     3.081666
      pz      :     0.965117  p :     2.972120
      px      :     1.005065
      py      :     1.001939
      dz2     :     0.009728  d :     0.045814
      dxz     :     0.010585
      dyz     :     0.011406
      dx2y2   :     0.007766
      dxy     :     0.006328
  3 C s       :     3.189802  s :     3.189802
      pz      :     0.886441  p :     2.755833
      px      :     0.945481
      py      :     0.923911
      dz2     :     0.008621  d :     0.033052
      dxz     :     0.007677
      dyz     :     0.008221
      dx2y2   :     0.003304
      dxy     :     0.005230
  4 C s       :     3.053987  s :     3.053987
      pz      :     0.998405  p :     3.037734
      px      :     1.041216
      py      :     0.998114
      dz2     :     0.010413  d :     0.043615
      dxz     :     0.009734
      dyz     :     0.009670
      dx2y2   :     0.006481
      dxy     :     0.007318
  5 H s       :     0.966987  s :     0.966987
      pz      :     0.005099  p :     0.023743
      px      :     0.009171
      py      :     0.009474
  6 C s       :     2.971594  s :     2.971594
      pz      :     0.936378  p :     2.928771
      px      :     0.995026
      py      :     0.997367
      dz2     :     0.011982  d :     0.037664
      dxz     :     0.008325
      dyz     :     0.004903
      dx2y2   :     0.002824
      dxy     :     0.009630
  7 H s       :     0.923702  s :     0.923702
      pz      :     0.003666  p :     0.021874
      px      :     0.007497
      py      :     0.010711
  8 H s       :     0.963963  s :     0.963963
      pz      :     0.004866  p :     0.022493
      px      :     0.007261
      py      :     0.010367
  9 C s       :     3.072475  s :     3.072475
      pz      :     1.012263  p :     2.992288
      px      :     0.976038
      py      :     1.003987
      dz2     :     0.007675  d :     0.034631
      dxz     :     0.009039
      dyz     :     0.002420
      dx2y2   :     0.006104
      dxy     :     0.009393
 10 H s       :     0.951883  s :     0.951883
      pz      :     0.011553  p :     0.022563
      px      :     0.006355
      py      :     0.004655
 11 H s       :     0.941475  s :     0.941475
      pz      :     0.004991  p :     0.022076
      px      :     0.006319
      py      :     0.010765
 12 C s       :     3.025085  s :     3.025085
      pz      :     1.038901  p :     2.999729
      px      :     0.985451
      py      :     0.975376
      dz2     :     0.004537  d :     0.026619
      dxz     :     0.008183
      dyz     :     0.002110
      dx2y2   :     0.005181
      dxy     :     0.006608
 13 H s       :     0.944382  s :     0.944382
      pz      :     0.012043  p :     0.022194
      px      :     0.006050
      py      :     0.004100
 14 H s       :     0.944315  s :     0.944315
      pz      :     0.009742  p :     0.025448
      px      :     0.011174
      py      :     0.004532
 15 H s       :     0.938722  s :     0.938722
      pz      :     0.005308  p :     0.022687
      px      :     0.006813
      py      :     0.010565
 16 S s       :     5.848608  s :     5.848608
      pz      :     3.174328  p :     9.966060
      px      :     3.400340
      py      :     3.391392
      dz2     :     0.026149  d :     0.099244
      dxz     :     0.023255
      dyz     :     0.011705
      dx2y2   :     0.014529
      dxy     :     0.023607
 17 C s       :     3.122435  s :     3.122435
      pz      :     0.986457  p :     2.905163
      px      :     0.947744
      py      :     0.970962
      dz2     :     0.008062  d :     0.037935
      dxz     :     0.007763
      dyz     :     0.006040
      dx2y2   :     0.007089
      dxy     :     0.008983
 18 C s       :     3.166418  s :     3.166418
      pz      :     0.960724  p :     2.842959
      px      :     0.888912
      py      :     0.993322
      dz2     :     0.009870  d :     0.036398
      dxz     :     0.008611
      dyz     :     0.006710
      dx2y2   :     0.004933
      dxy     :     0.006274
 19 C s       :     3.081707  s :     3.081707
      pz      :     0.952381  p :     2.938909
      px      :     0.994994
      py      :     0.991535
      dz2     :     0.010326  d :     0.041924
      dxz     :     0.009205
      dyz     :     0.007176
      dx2y2   :     0.008501
      dxy     :     0.006716
 20 C s       :     3.088064  s :     3.088064
      pz      :     0.939888  p :     3.016067
      px      :     1.001886
      py      :     1.074293
      dz2     :     0.008926  d :     0.041304
      dxz     :     0.011265
      dyz     :     0.006191
      dx2y2   :     0.007401
      dxy     :     0.007520
 21 H s       :     0.937988  s :     0.937988
      pz      :     0.003060  p :     0.021155
      px      :     0.011097
      py      :     0.006998
 22 C s       :     2.936130  s :     2.936130
      pz      :     0.934765  p :     2.949513
      px      :     1.023189
      py      :     0.991559
      dz2     :     0.004680  d :     0.035488
      dxz     :     0.008685
      dyz     :     0.010119
      dx2y2   :     0.007232
      dxy     :     0.004773
 23 H s       :     0.952631  s :     0.952631
      pz      :     0.008573  p :     0.023764
      px      :     0.005000
      py      :     0.010191
 24 H s       :     0.947083  s :     0.947083
      pz      :     0.007256  p :     0.024995
      px      :     0.012351
      py      :     0.005388
 25 C s       :     3.099244  s :     3.099244
      pz      :     0.984262  p :     2.995464
      px      :     1.026198
      py      :     0.985004
      dz2     :     0.006547  d :     0.035714
      dxz     :     0.007007
      dyz     :     0.009970
      dx2y2   :     0.007233
      dxy     :     0.004957
 26 H s       :     0.949927  s :     0.949927
      pz      :     0.007788  p :     0.022218
      px      :     0.005447
      py      :     0.008984
 27 H s       :     0.934867  s :     0.934867
      pz      :     0.004239  p :     0.020802
      px      :     0.012092
      py      :     0.004470
 28 C s       :     3.044947  s :     3.044947
      pz      :     0.976726  p :     2.984955
      px      :     1.005238
      py      :     1.002992
      dz2     :     0.007008  d :     0.026322
      dxz     :     0.008076
      dyz     :     0.002016
      dx2y2   :     0.003458
      dxy     :     0.005763
 29 H s       :     0.935493  s :     0.935493
      pz      :     0.004451  p :     0.022195
      px      :     0.005983
      py      :     0.011761
 30 H s       :     0.922519  s :     0.922519
      pz      :     0.003672  p :     0.020776
      px      :     0.007893
      py      :     0.009211
 31 H s       :     0.940287  s :     0.940287
      pz      :     0.010071  p :     0.022750
      px      :     0.007880
      py      :     0.004799
 32 H s       :     0.965249  s :     0.965249
      pz      :     0.005972  p :     0.027009
      px      :     0.011239
      py      :     0.009798
 33 H s       :     0.923398  s :     0.923398
      pz      :     0.012677  p :     0.024439
      px      :     0.003702
      py      :     0.008061


                     *******************************
                     * LOEWDIN POPULATION ANALYSIS *
                     *******************************

----------------------
LOEWDIN ATOMIC CHARGES
----------------------
   0 S :    0.393825
   1 C :   -0.189125
   2 C :   -0.068902
   3 C :   -0.056441
   4 C :   -0.185079
   5 H :    0.030763
   6 C :   -0.036661
   7 H :    0.043408
   8 H :    0.030529
   9 C :   -0.052465
  10 H :    0.028128
  11 H :    0.027052
  12 C :   -0.068509
  13 H :    0.032295
  14 H :    0.018797
  15 H :    0.029975
  16 S :    0.372553
  17 C :   -0.182509
  18 C :   -0.086707
  19 C :   -0.044992
  20 C :   -0.169530
  21 H :    0.043122
  22 C :   -0.030652
  23 H :    0.025387
  24 H :    0.031328
  25 C :   -0.052937
  26 H :    0.022471
  27 H :    0.029646
  28 C :   -0.079821
  29 H :    0.030605
  30 H :    0.039120
  31 H :    0.029199
  32 H :    0.013571
  33 H :    0.032557

-------------------------------
LOEWDIN REDUCED ORBITAL CHARGES
-------------------------------
  0 S s       :     5.513245  s :     5.513245
      pz      :     3.267760  p :     9.965722
      px      :     3.356663
      py      :     3.341299
      dz2     :     0.041554  d :     0.127208
      dxz     :     0.022426
      dyz     :     0.017514
      dx2y2   :     0.020936
      dxy     :     0.024778
  1 C s       :     2.909503  s :     2.909503
      pz      :     1.007750  p :     3.196498
      px      :     1.088568
      py      :     1.100180
      dz2     :     0.024179  d :     0.083125
      dxz     :     0.019636
      dyz     :     0.019009
      dx2y2   :     0.007645
      dxy     :     0.012656
  2 C s       :     2.853910  s :     2.853910
      pz      :     1.051724  p :     3.100127
      px      :     1.015669
      py      :     1.032735
      dz2     :     0.025212  d :     0.114865
      dxz     :     0.025990
      dyz     :     0.030445
      dx2y2   :     0.017032
      dxy     :     0.016187
  3 C s       :     2.873786  s :     2.873786
      pz      :     1.035953  p :     3.095736
      px      :     1.025150
      py      :     1.034633
      dz2     :     0.025031  d :     0.086918
      dxz     :     0.020349
      dyz     :     0.022470
      dx2y2   :     0.006328
      dxy     :     0.012740
  4 C s       :     2.908853  s :     2.908853
      pz      :     1.092898  p :     3.172673
      px      :     1.045935
      py      :     1.033839
      dz2     :     0.027937  d :     0.103553
      dxz     :     0.022135
      dyz     :     0.024426
      dx2y2   :     0.013146
      dxy     :     0.015909
  5 H s       :     0.900217  s :     0.900217
      pz      :     0.015676  p :     0.069020
      px      :     0.025857
      py      :     0.027487
  6 C s       :     2.823616  s :     2.823616
      pz      :     1.024233  p :     3.117591
      px      :     1.035176
      py      :     1.058182
      dz2     :     0.029522  d :     0.095454
      dxz     :     0.022955
      dyz     :     0.011507
      dx2y2   :     0.006921
      dxy     :     0.024548
  7 H s       :     0.894612  s :     0.894612
      pz      :     0.011638  p :     0.061980
      px      :     0.021416
      py      :     0.028927
  8 H s       :     0.903608  s :     0.903608
      pz      :     0.014784  p :     0.065862
      px      :     0.022152
      py      :     0.028926
  9 C s       :     2.848982  s :     2.848982
      pz      :     1.050033  p :     3.120813
      px      :     1.030857
      py      :     1.039923
      dz2     :     0.018480  d :     0.082669
      dxz     :     0.022452
      dyz     :     0.004264
      dx2y2   :     0.013459
      dxy     :     0.024014
 10 H s       :     0.906090  s :     0.906090
      pz      :     0.033818  p :     0.065782
      px      :     0.018559
      py      :     0.013405
 11 H s       :     0.907455  s :     0.907455
      pz      :     0.014570  p :     0.065494
      px      :     0.018590
      py      :     0.032333
 12 C s       :     2.842437  s :     2.842437
      pz      :     1.084404  p :     3.158761
      px      :     1.041888
      py      :     1.032470
      dz2     :     0.012033  d :     0.067310
      dxz     :     0.019969
      dyz     :     0.004517
      dx2y2   :     0.011660
      dxy     :     0.019132
 13 H s       :     0.907301  s :     0.907301
      pz      :     0.032227  p :     0.060404
      px      :     0.016659
      py      :     0.011517
 14 H s       :     0.907199  s :     0.907199
      pz      :     0.026179  p :     0.074004
      px      :     0.033106
      py      :     0.014719
 15 H s       :     0.906182  s :     0.906182
      pz      :     0.013906  p :     0.063844
      px      :     0.018746
      py      :     0.031191
 16 S s       :     5.529166  s :     5.529166
      pz      :     3.173267  p :     9.977397
      px      :     3.417747
      py      :     3.386383
      dz2     :     0.033099  d :     0.120883
      dxz     :     0.027659
      dyz     :     0.014587
      dx2y2   :     0.015812
      dxy     :     0.029726
 17 C s       :     2.911172  s :     2.911172
      pz      :     1.081858  p :     3.180555
      px      :     1.060350
      py      :     1.038347
      dz2     :     0.019204  d :     0.090782
      dxz     :     0.021324
      dyz     :     0.013444
      dx2y2   :     0.016729
      dxy     :     0.020082
 18 C s       :     2.869705  s :     2.869705
      pz      :     1.047113  p :     3.121913
      px      :     1.052649
      py      :     1.022151
      dz2     :     0.026058  d :     0.095089
      dxz     :     0.024386
      dyz     :     0.017116
      dx2y2   :     0.012625
      dxy     :     0.014904
 19 C s       :     2.868581  s :     2.868581
      pz      :     1.032394  p :     3.073267
      px      :     1.029717
      py      :     1.011157
      dz2     :     0.025665  d :     0.103143
      dxz     :     0.023958
      dyz     :     0.016670
      dx2y2   :     0.019377
      dxy     :     0.017473
 20 C s       :     2.917888  s :     2.917888
      pz      :     0.990310  p :     3.153399
      px      :     1.070656
      py      :     1.092433
      dz2     :     0.021870  d :     0.098243
      dxz     :     0.027306
      dyz     :     0.014009
      dx2y2   :     0.016346
      dxy     :     0.018711
 21 H s       :     0.896827  s :     0.896827
      pz      :     0.009606  p :     0.060051
      px      :     0.030541
      py      :     0.019903
 22 C s       :     2.818769  s :     2.818769
      pz      :     1.021066  p :     3.122545
      px      :     1.061864
      py      :     1.039616
      dz2     :     0.010436  d :     0.089337
      dxz     :     0.022877
      dyz     :     0.027212
      dx2y2   :     0.018779
      dxy     :     0.010033
 23 H s       :     0.903471  s :     0.903471
      pz      :     0.024858  p :     0.071142
      px      :     0.015799
      py      :     0.030485
 24 H s       :     0.894707  s :     0.894707
      pz      :     0.021106  p :     0.073966
      px      :     0.035573
      py      :     0.017287
 25 C s       :     2.848663  s :     2.848663
      pz      :     1.031857  p :     3.118343
      px      :     1.054832
      py      :     1.031654
      dz2     :     0.014278  d :     0.085932
      dxz     :     0.017663
      dyz     :     0.024923
      dx2y2   :     0.018355
      dxy     :     0.010713
 26 H s       :     0.910754  s :     0.910754
      pz      :     0.023928  p :     0.066775
      px      :     0.015614
      py      :     0.027233
 27 H s       :     0.911601  s :     0.911601
      pz      :     0.012050  p :     0.058753
      px      :     0.033071
      py      :     0.013632
 28 C s       :     2.860786  s :     2.860786
      pz      :     1.040422  p :     3.151926
      px      :     1.059824
      py      :     1.051680
      dz2     :     0.018007  d :     0.067109
      dxz     :     0.021197
      dyz     :     0.003943
      dx2y2   :     0.007902
      dxy     :     0.016060
 29 H s       :     0.906799  s :     0.906799
      pz      :     0.011874  p :     0.062596
      px      :     0.016318
      py      :     0.034403
 30 H s       :     0.904100  s :     0.904100
      pz      :     0.010111  p :     0.056780
      px      :     0.021106
      py      :     0.025563
 31 H s       :     0.908426  s :     0.908426
      pz      :     0.028707  p :     0.062375
      px      :     0.022020
      py      :     0.011648
 32 H s       :     0.900344  s :     0.900344
      pz      :     0.021924  p :     0.086085
      px      :     0.034512
      py      :     0.029649
 33 H s       :     0.891763  s :     0.891763
      pz      :     0.036451  p :     0.075680
      px      :     0.013874
      py      :     0.025355


                      *****************************
                      * MAYER POPULATION ANALYSIS *
                      *****************************

  NA   - Mulliken gross atomic population
  ZA   - Total nuclear charge
  QA   - Mulliken gross atomic charge
  VA   - Mayer's total valence
  BVA  - Mayer's bonded valence
  FA   - Mayer's free valence

  ATOM       NA         ZA         QA         VA         BVA        FA
  0 S     15.8848    16.0000     0.1152     2.4478     2.4478    -0.0000
  1 C      6.0737     6.0000    -0.0737     3.8420     3.8420    -0.0000
  2 C      6.0996     6.0000    -0.0996     4.0385     4.0385    -0.0000
  3 C      5.9787     6.0000     0.0213     3.9058     3.9058    -0.0000
  4 C      6.1353     6.0000    -0.1353     3.9281     3.9281    -0.0000
  5 H      0.9907     1.0000     0.0093     1.0093     1.0093    -0.0000
  6 C      5.9380     6.0000     0.0620     3.9654     3.9654    -0.0000
  7 H      0.9456     1.0000     0.0544     0.9793     0.9793    -0.0000
  8 H      0.9865     1.0000     0.0135     0.9914     0.9914     0.0000
  9 C      6.0994     6.0000    -0.0994     4.0648     4.0648    -0.0000
 10 H      0.9744     1.0000     0.0256     0.9728     0.9728    -0.0000
 11 H      0.9636     1.0000     0.0364     0.9823     0.9823     0.0000
 12 C      6.0514     6.0000    -0.0514     3.9805     3.9805     0.0000
 13 H      0.9666     1.0000     0.0334     0.9841     0.9841     0.0000
 14 H      0.9698     1.0000     0.0302     0.9921     0.9921    -0.0000
 15 H      0.9614     1.0000     0.0386     0.9957     0.9957     0.0000
 16 S     15.9139    16.0000     0.0861     2.4430     2.4430    -0.0000
 17 C      6.0655     6.0000    -0.0655     3.8532     3.8532     0.0000
 18 C      6.0458     6.0000    -0.0458     3.9682     3.9682    -0.0000
 19 C      6.0625     6.0000    -0.0625     4.0281     4.0281    -0.0000
 20 C      6.1454     6.0000    -0.1454     3.9535     3.9535    -0.0000
 21 H      0.9591     1.0000     0.0409     0.9903     0.9903     0.0000
 22 C      5.9211     6.0000     0.0789     3.9556     3.9556     0.0000
 23 H      0.9764     1.0000     0.0236     0.9992     0.9992     0.0000
 24 H      0.9721     1.0000     0.0279     0.9874     0.9874     0.0000
 25 C      6.1304     6.0000    -0.1304     4.0490     4.0490     0.0000
 26 H      0.9721     1.0000     0.0279     0.9848     0.9848    -0.0000
 27 H      0.9557     1.0000     0.0443     0.9784     0.9784     0.0000
 28 C      6.0562     6.0000    -0.0562     3.9659     3.9659     0.0000
 29 H      0.9577     1.0000     0.0423     0.9954     0.9954    -0.0000
 30 H      0.9433     1.0000     0.0567     0.9833     0.9833     0.0000
 31 H      0.9630     1.0000     0.0370     0.9842     0.9842    -0.0000
 32 H      0.9923     1.0000     0.0077     1.0173     1.0173    -0.0000
 33 H      0.9478     1.0000     0.0522     0.9984     0.9984     0.0000

  Mayer bond orders larger than 0.100000
B(  0-S ,  1-C ) :   1.1268 B(  0-S ,  4-C ) :   1.1259 B(  1-C ,  2-C ) :   1.6117 
B(  1-C , 32-H ) :   0.9689 B(  2-C ,  3-C ) :   1.2357 B(  2-C ,  6-C ) :   1.0485 
B(  3-C ,  4-C ) :   1.5574 B(  3-C ,  5-H ) :   0.9834 B(  4-C , 20-C ) :   1.1097 
B(  6-C ,  7-H ) :   0.9326 B(  6-C ,  8-H ) :   0.9338 B(  6-C ,  9-C ) :   1.0714 
B(  9-C , 10-H ) :   0.9561 B(  9-C , 11-H ) :   0.9554 B(  9-C , 12-C ) :   1.0598 
B( 12-C , 13-H ) :   0.9757 B( 12-C , 14-H ) :   0.9756 B( 12-C , 15-H ) :   0.9773 
B( 16-S , 17-C ) :   1.1475 B( 16-S , 20-C ) :   1.1018 B( 17-C , 18-C ) :   1.6386 
B( 17-C , 33-H ) :   0.9621 B( 18-C , 19-C ) :   1.2386 B( 18-C , 21-H ) :   0.9726 
B( 19-C , 20-C ) :   1.5932 B( 19-C , 22-C ) :   1.0332 B( 22-C , 23-H ) :   0.9407 
B( 22-C , 24-H ) :   0.9296 B( 22-C , 25-C ) :   1.0516 B( 25-C , 26-H ) :   0.9603 
B( 25-C , 27-H ) :   0.9606 B( 25-C , 28-C ) :   1.0516 B( 28-C , 29-H ) :   0.9757 
B( 28-C , 30-H ) :   0.9757 B( 28-C , 31-H ) :   0.9782 

-------
TIMINGS
-------

Total SCF time: 0 days 0 hours 0 min 20 sec 

Total time                  ....      20.514 sec
Sum of individual times     ....      19.645 sec  ( 95.8%)

Fock matrix formation       ....      17.984 sec  ( 87.7%)
  XC integration            ....       1.502 sec  (  8.3% of F)
    Basis function eval.    ....       0.140 sec  (  9.3% of XC)
    Density eval.           ....       0.107 sec  (  7.1% of XC)
    XC-Functional eval.     ....       0.120 sec  (  8.0% of XC)
    XC-Potential eval.      ....       0.115 sec  (  7.6% of XC)
Diagonalization             ....       0.132 sec  (  0.6%)
Density matrix formation    ....       0.023 sec  (  0.1%)
Population analysis         ....       0.054 sec  (  0.3%)
Initial guess               ....       0.170 sec  (  0.8%)
Orbital Transformation      ....       0.000 sec  (  0.0%)
Orbital Orthonormalization  ....       0.000 sec  (  0.0%)
DIIS solution               ....       0.153 sec  (  0.7%)
SOSCF solution              ....       0.125 sec  (  0.6%)
Grid generation             ....       1.003 sec  (  4.9%)


-------------------------------------------------------------------------------
                          DFT DISPERSION CORRECTION                            
                                                                               
                              DFTD3 V3.1  Rev 1                                
                              USING zero damping                               
-------------------------------------------------------------------------------
The omegaB97X-D3 functional is recognized. Fit by Chai et al.
Active option DFTDOPT                   ...         3   

molecular C6(AA) [au] = 14208.074582 


            DFT-D V3
 parameters
 s6 scaling factor         :     1.0000 
 rs6 scaling factor        :     1.2810 
 s8 scaling factor         :     1.0000 
 rs8 scaling factor        :     1.0940 
 Damping factor alpha6     :    14.0000 
 Damping factor alpha8     :    16.0000 
 ad hoc parameters k1-k3   :    16.0000     1.3333    -4.0000 

 Edisp/kcal,au: -9.416705375659  -0.015006473624 
 E6   /kcal   :  -4.420948799 
 E8   /kcal   :  -4.995756577 
 % E8         :  53.052064151 

-------------------------   ----------------
Dispersion correction           -0.015006474
-------------------------   ----------------


-------------------------   --------------------
FINAL SINGLE POINT ENERGY     -1339.867313447698
-------------------------   --------------------


                            ***************************************
                            *     ORCA property calculations      *
                            ***************************************

                                    ---------------------
                                    Active property flags
                                    ---------------------
   (+) Dipole Moment


------------------------------------------------------------------------------
                       ORCA ELECTRIC PROPERTIES CALCULATION
------------------------------------------------------------------------------

Dipole Moment Calculation                       ... on
Quadrupole Moment Calculation                   ... off
Polarizability Calculation                      ... off
GBWName                                         ... config_5638.gbw
Electron density file                           ... config_5638.scfp
The origin for moment calculation is the CENTER OF MASS  = (-183.742015, 22.282031 -224.698102)

-------------
DIPOLE MOMENT
-------------
                                X             Y             Z
Electronic contribution:     13.71289      -5.99781     -28.25091
Nuclear contribution   :    -14.09023       6.36694      28.90213
                        -----------------------------------------
Total Dipole Moment    :     -0.37734       0.36913       0.65122
                        -----------------------------------------
Magnitude (a.u.)       :      0.83829
Magnitude (Debye)      :      2.13077



--------------------
Rotational spectrum 
--------------------
 
Rotational constants in cm-1:     0.016944     0.010526     0.006955 
Rotational constants in MHz :   507.958193   315.557665   208.500905 

 Dipole components along the rotational axes: 
x,y,z [a.u.] :     0.279808     0.773311    -0.162566 
x,y,z [Debye]:     0.711215     1.965602    -0.413211 

 

Timings for individual modules:

Sum of individual times         ...       21.673 sec (=   0.361 min)
GTO integral calculation        ...        0.792 sec (=   0.013 min)   3.7 %
SCF iterations                  ...       20.881 sec (=   0.348 min)  96.3 %
                             ****ORCA TERMINATED NORMALLY****
TOTAL RUN TIME: 0 days 0 hours 0 minutes 22 seconds 364 msec
