
                                 *****************
                                 * O   R   C   A *
                                 *****************

           --- An Ab Initio, DFT and Semiempirical electronic structure package ---

                  #######################################################
                  #                        -***-                        #
                  #          Department of theory and spectroscopy      #
                  #               Directorship: Frank Neese             #
                  #        Max Planck Institute fuer Kohlenforschung    #
                  #                Kaiser Wilhelm Platz 1               #
                  #                 D-45470 Muelheim/Ruhr               #
                  #                      Germany                        #
                  #                                                     #
                  #                  All rights reserved                #
                  #                        -***-                        #
                  #######################################################


                         Program Version 4.2.1 -  RELEASE  -


 With contributions from (in alphabetic order):
   Daniel Aravena         : Magnetic Suceptibility
   Michael Atanasov       : Ab Initio Ligand Field Theory (pilot matlab implementation)
   Alexander A. Auer      : GIAO ZORA, VPT2
   Ute Becker             : Parallelization
   Giovanni Bistoni       : ED, misc. LED, open-shell LED, HFLD
   Martin Brehm           : Molecular dynamics
   Dmytro Bykov           : SCF Hessian
   Vijay G. Chilkuri      : MRCI spin determinant printing, contributions to CSF-ICE
   Dipayan Datta          : RHF DLPNO-CCSD density
   Achintya Kumar Dutta   : EOM-CC, STEOM-CC
   Dmitry Ganyushin       : Spin-Orbit,Spin-Spin,Magnetic field MRCI
   Miquel Garcia          : C-PCM Hessian, Gaussian charge scheme
   Yang Guo               : DLPNO-NEVPT2, CIM, IAO-localization
   Andreas Hansen         : Spin unrestricted coupled pair/coupled cluster methods
   Benjamin Helmich-Paris : CASSCF linear response (MC-RPA)
   Lee Huntington         : MR-EOM, pCC
   Robert Izsak           : Overlap fitted RIJCOSX, COSX-SCS-MP3, EOM
   Christian Kollmar      : KDIIS, OOCD, Brueckner-CCSD(T), CCSD density
   Simone Kossmann        : Meta GGA functionals, TD-DFT gradient, OOMP2, MP2 Hessian
   Martin Krupicka        : AUTO-CI
   Lucas Lang             : DCDCAS
   Dagmar Lenk            : GEPOL surface, SMD
   Dimitrios Liakos       : Extrapolation schemes; Compound Job, initial MDCI parallelization
   Dimitrios Manganas     : Further ROCIS development; embedding schemes
   Dimitrios Pantazis     : SARC Basis sets
   Taras Petrenko         : DFT Hessian,TD-DFT gradient, ASA, ECA, R-Raman, ABS, FL, XAS/XES, NRVS
   Peter Pinski           : DLPNO-MP2, DLPNO-MP2 Gradient
   Christoph Reimann      : Effective Core Potentials
   Marius Retegan         : Local ZFS, SOC
   Christoph Riplinger    : Optimizer, TS searches, QM/MM, DLPNO-CCSD(T), (RO)-DLPNO pert. Triples
   Tobias Risthaus        : Range-separated hybrids, TD-DFT gradient, RPA, STAB
   Michael Roemelt        : Original ROCIS implementation
   Masaaki Saitow         : Open-shell DLPNO-CCSD energy and density
   Barbara Sandhoefer     : DKH picture change effects
   Avijit Sen             : IP-ROCIS
   Kantharuban Sivalingam : CASSCF convergence, NEVPT2, FIC-MRCI
   Bernardo de Souza      : ESD, SOC TD-DFT
   Georgi Stoychev        : AutoAux, RI-MP2 NMR
   Willem Van den Heuvel  : Paramagnetic NMR
   Boris Wezisla          : Elementary symmetry handling
   Frank Wennmohs         : Technical directorship


 We gratefully acknowledge several colleagues who have allowed us to
 interface, adapt or use parts of their codes:
   Stefan Grimme, W. Hujo, H. Kruse,             : VdW corrections, initial TS optimization,
                  C. Bannwarth                     DFT functionals, gCP, sTDA/sTD-DF
   Ed Valeev, F. Pavosevic, A. Kumar             : LibInt (2-el integral package), F12 methods
   Garnet Chan, S. Sharma, J. Yang, R. Olivares  : DMRG
   Ulf Ekstrom                                   : XCFun DFT Library
   Mihaly Kallay                                 : mrcc  (arbitrary order and MRCC methods)
   Andreas Klamt, Michael Diedenhofen            : otool_cosmo (COSMO solvation model)
   Jiri Pittner, Ondrej Demel                    : Mk-CCSD
   Frank Weinhold                                : gennbo (NPA and NBO analysis)
   Christopher J. Cramer and Donald G. Truhlar   : smd solvation model
   Lars Goerigk                                  : TD-DFT with DH, B97 family of functionals
   V. Asgeirsson, H. Jonsson                     : NEB implementation
   FAccTs GmbH                                   : IRC, NEB, NEB-TS, Multilevel, MM, QM/MM, CI optimization
   S Lehtola, MJT Oliveira, MAL Marques          : LibXC Library


 Your calculation uses the libint2 library for the computation of 2-el integrals
 For citations please refer to: http://libint.valeyev.net

 Your ORCA version has been built with support for libXC version: 4.2.3
 For citations please refer to: https://tddft.org/programs/libxc/

 This ORCA versions uses:
   CBLAS   interface :  Fast vector & matrix operations
   LAPACKE interface :  Fast linear algebra routines
   SCALAPACK package :  Parallel linear algebra routines


Your calculation utilizes the atom-pairwise dispersion correction
with the zero-damping scheme (D30)
Cite in your paper:
S.Grimme, J.Antony, S.Ehrlich and H.Krieg, J.Chem.Phys., 132, (2010), 154104 
   

XCFun DFT library Copyright 2009-2010 Ulf Ekstrom and contributors.
See http://admol.org/xcfun for more information. This is free soft-
ware; see the source code for copying conditions. There is ABSOLUTELY
NO WARRANTY; not even for MERCHANTABILITY or FITNESS FOR A PARTICULAR
PURPOSE. For details see the documentation. Scientific users of this 
library should cite U. Ekstrom, L. Visscher, R. Bast, A. J. Thorvald-
sen and K. Ruud; J.Chem.Theor.Comp. 2010, DOI: 10.1021/ct100117s
XCFun Version 0.99 
----- Orbital basis set information -----
Your calculation utilizes the basis: def2-SVP
   F. Weigend and R. Ahlrichs, Phys. Chem. Chem. Phys. 7, 3297 (2005).

================================================================================
                                        WARNINGS
                       Please study these warnings very carefully!
================================================================================


INFO   : the flag for use of LIBINT has been found!

================================================================================
                                       INPUT FILE
================================================================================
NAME = config_6963.inp
|  1> ! wB97X-D3 SP def2-SVP
|  2> %pal
|  3> nprocs 24
|  4> end
|  5> 
|  6> * xyz 0 1
|  7> S 	 -63.101 	 15.025 	 -91.2095 	 
|  8> C 	 -63.4675 	 15.8121 	 -92.7649 	 
|  9> C 	 -63.6757 	 17.165 	 -92.5353 	 
| 10> C 	 -63.5346 	 17.5532 	 -91.1849 	 
| 11> C 	 -63.0782 	 16.5471 	 -90.3729 	 
| 12> H 	 -63.6956 	 18.5067 	 -90.8447 	 
| 13> C 	 -64.3632 	 18.1303 	 -93.4815 	 
| 14> H 	 -63.9038 	 17.8831 	 -94.4357 	 
| 15> H 	 -63.9649 	 19.1293 	 -93.4 	 
| 16> C 	 -65.8467 	 18.1908 	 -93.6716 	 
| 17> H 	 -66.2644 	 18.2449 	 -92.7055 	 
| 18> H 	 -66.1542 	 19.1187 	 -94.1514 	 
| 19> C 	 -66.5353 	 16.9338 	 -94.3711 	 
| 20> H 	 -65.9636 	 16.013 	 -94.1401 	 
| 21> H 	 -67.6247 	 16.8727 	 -94.1022 	 
| 22> H 	 -66.4765 	 17.0242 	 -95.4301 	 
| 23> S 	 -63.7406 	 15.5134 	 -87.9862 	 
| 24> C 	 -63.2108 	 16.2423 	 -86.455 	 
| 25> C 	 -62.3779 	 17.3314 	 -86.7019 	 
| 26> C 	 -62.2611 	 17.5588 	 -88.1013 	 
| 27> C 	 -62.8601 	 16.5893 	 -88.95 	 
| 28> H 	 -62.1047 	 17.8453 	 -85.8472 	 
| 29> C 	 -61.6384 	 18.7751 	 -88.6689 	 
| 30> H 	 -61.1529 	 19.2707 	 -87.8199 	 
| 31> H 	 -62.4547 	 19.541 	 -88.9496 	 
| 32> C 	 -60.5099 	 18.5749 	 -89.7522 	 
| 33> H 	 -60.1205 	 19.5556 	 -89.9595 	 
| 34> H 	 -60.7822 	 18.0941 	 -90.6505 	 
| 35> C 	 -59.3986 	 17.6873 	 -89.1934 	 
| 36> H 	 -59.7147 	 17.1662 	 -88.3491 	 
| 37> H 	 -58.5046 	 18.2187 	 -88.853 	 
| 38> H 	 -59.137 	 16.9155 	 -89.9427 	 
| 39> H 	 -63.6453 	 15.289 	 -93.7115 	 
| 40> H 	 -63.4155 	 15.9343 	 -85.5172 	 
| 41> *
| 42> 
| 43>                          ****END OF INPUT****
================================================================================

                       ****************************
                       * Single Point Calculation *
                       ****************************

---------------------------------
CARTESIAN COORDINATES (ANGSTROEM)
---------------------------------
  S    -63.101000   15.025000  -91.209500
  C    -63.467500   15.812100  -92.764900
  C    -63.675700   17.165000  -92.535300
  C    -63.534600   17.553200  -91.184900
  C    -63.078200   16.547100  -90.372900
  H    -63.695600   18.506700  -90.844700
  C    -64.363200   18.130300  -93.481500
  H    -63.903800   17.883100  -94.435700
  H    -63.964900   19.129300  -93.400000
  C    -65.846700   18.190800  -93.671600
  H    -66.264400   18.244900  -92.705500
  H    -66.154200   19.118700  -94.151400
  C    -66.535300   16.933800  -94.371100
  H    -65.963600   16.013000  -94.140100
  H    -67.624700   16.872700  -94.102200
  H    -66.476500   17.024200  -95.430100
  S    -63.740600   15.513400  -87.986200
  C    -63.210800   16.242300  -86.455000
  C    -62.377900   17.331400  -86.701900
  C    -62.261100   17.558800  -88.101300
  C    -62.860100   16.589300  -88.950000
  H    -62.104700   17.845300  -85.847200
  C    -61.638400   18.775100  -88.668900
  H    -61.152900   19.270700  -87.819900
  H    -62.454700   19.541000  -88.949600
  C    -60.509900   18.574900  -89.752200
  H    -60.120500   19.555600  -89.959500
  H    -60.782200   18.094100  -90.650500
  C    -59.398600   17.687300  -89.193400
  H    -59.714700   17.166200  -88.349100
  H    -58.504600   18.218700  -88.853000
  H    -59.137000   16.915500  -89.942700
  H    -63.645300   15.289000  -93.711500
  H    -63.415500   15.934300  -85.517200

----------------------------
CARTESIAN COORDINATES (A.U.)
----------------------------
  NO LB      ZA    FRAG     MASS         X           Y           Z
   0 S    16.0000    0    32.060  -119.243609   28.393135  -172.360976
   1 C     6.0000    0    12.011  -119.936193   29.880539  -175.300256
   2 C     6.0000    0    12.011  -120.329634   32.437149  -174.866375
   3 C     6.0000    0    12.011  -120.062994   33.170741  -172.314489
   4 C     6.0000    0    12.011  -119.200523   31.269487  -170.780031
   5 H     1.0000    0     1.008  -120.367240   34.972595  -171.671604
   6 C     6.0000    0    12.011  -121.628821   34.261302  -176.654434
   7 H     1.0000    0     1.008  -120.760681   33.794161  -178.457610
   8 H     1.0000    0     1.008  -120.876143   36.149138  -176.500421
   9 C     6.0000    0    12.011  -124.432230   34.375630  -177.013671
  10 H     1.0000    0     1.008  -125.221568   34.477864  -175.188006
  11 H     1.0000    0     1.008  -125.013321   36.129107  -177.920361
  12 C     6.0000    0    12.011  -125.733495   32.000244  -178.335534
  13 H     1.0000    0     1.008  -124.653139   30.260185  -177.899007
  14 H     1.0000    0     1.008  -127.792163   31.884782  -177.827387
  15 H     1.0000    0     1.008  -125.622379   32.171076  -180.336754
  16 S    16.0000    0    32.060  -120.452278   29.316077  -166.269822
  17 C     6.0000    0    12.011  -119.451101   30.693499  -163.376273
  18 C     6.0000    0    12.011  -117.877148   32.751600  -163.842846
  19 C     6.0000    0    12.011  -117.656428   33.181323  -166.487329
  20 C     6.0000    0    12.011  -118.788374   31.349234  -168.091140
  21 H     1.0000    0     1.008  -117.360875   33.722730  -162.227697
  22 C     6.0000    0    12.011  -116.479695   35.479797  -167.559938
  23 H     1.0000    0     1.008  -115.562233   36.416345  -165.955560
  24 H     1.0000    0     1.008  -118.022279   36.927138  -168.090384
  25 C     6.0000    0    12.011  -114.347139   35.101474  -169.607078
  26 H     1.0000    0     1.008  -113.611280   36.954728  -169.998818
  27 H     1.0000    0     1.008  -114.861712   34.192894  -171.304619
  28 C     6.0000    0    12.011  -112.247087   33.424153  -168.551099
  29 H     1.0000    0     1.008  -112.844429   32.439417  -166.955603
  30 H     1.0000    0     1.008  -110.557672   34.428354  -167.907836
  31 H     1.0000    0     1.008  -111.752734   31.965662  -169.967071
  32 H     1.0000    0     1.008  -120.272187   28.892023  -177.089071
  33 H     1.0000    0     1.008  -119.837928   30.111463  -161.604088

--------------------------------
INTERNAL COORDINATES (ANGSTROEM)
--------------------------------
 S      0   0   0     0.000000000000     0.00000000     0.00000000
 C      1   0   0     1.781324737379     0.00000000     0.00000000
 C      2   1   0     1.387948777873   108.48907663     0.00000000
 C      3   2   1     1.412157431025   114.27760008     0.61715583
 C      4   3   2     1.371087951227   113.44515678     6.56747374
 H      4   3   2     1.025094771228   123.87370704   182.76135346
 C      3   2   1     1.516494240015   125.82067329   197.41684649
 H      7   3   2     1.087498891953   102.19610879   314.31963705
 H      7   3   2     1.078557434725   112.02538406   211.56339566
 C      7   3   2     1.496853536589   123.66055133    76.51930784
 H     10   7   3     1.053920922081   106.16780625    49.99253031
 H     10   7   3     1.088927316215   111.73216195   163.18370452
 C     10   7   3     1.594841437260   116.85674546   292.37697276
 H     13  10   7     1.108185241735   109.92098275    30.15204941
 H     13  10   7     1.123758328112   110.88344885   156.97917451
 H     13  10   7     1.064476678937   110.21600739   275.55758494
 S      5   4   3     2.683960942339   136.64376794   226.87901782
 C     17   5   4     1.776670112880   122.32907961   277.94845538
 C     18  17   5     1.393133457354   110.25923928   356.71773626
 C     19  18  17     1.422558736924   110.38923217     2.70408569
 C     20  19  18     1.420923270272   116.35195226   353.31022839
 H     19  18  17     1.034042329888   113.57764703   174.99124161
 C     20  19  18     1.479631960996   122.91003187   169.17939332
 H     23  20  19     1.096417169694   105.12238344    11.25588796
 H     23  20  19     1.154010827506   109.94916693   262.57951600
 C     23  20  19     1.577064101424   117.40637032   128.51338744
 H     26  23  20     1.075350240619   106.00764411   185.72413592
 H     26  23  20     1.054636819005   117.27109806    62.23597611
 C     26  23  20     1.528096492372   110.05605393   304.26778576
 H     29  26  23     1.041300585806   111.49464662    16.89432389
 H     29  26  23     1.094300744768   115.20227855   258.92667042
 H     29  26  23     1.107050265345   109.22582105   133.41530727
 H      2   1   3     1.096037412683   125.21248830   188.36480265
 H     18  17   5     1.008084783141   128.01369849   179.30075244

---------------------------
INTERNAL COORDINATES (A.U.)
---------------------------
 S      0   0   0     0.000000000000     0.00000000     0.00000000
 C      1   0   0     3.366215909226     0.00000000     0.00000000
 C      2   1   0     2.622843078091   108.48907663     0.00000000
 C      3   2   1     2.668590802620   114.27760008     0.61715583
 C      4   3   2     2.590980733338   113.44515678     6.56747374
 H      4   3   2     1.937148378937   123.87370704   182.76135346
 C      3   2   1     2.865758797298   125.82067329   197.41684649
 H      7   3   2     2.055075076735   102.19610879   314.31963705
 H      7   3   2     2.038178171334   112.02538406   211.56339566
 C      7   3   2     2.828643246745   123.66055133    76.51930784
 H     10   7   3     1.991621909543   106.16780625    49.99253031
 H     10   7   3     2.057774407393   111.73216195   163.18370452
 C     10   7   3     3.013813543450   116.85674546   292.37697276
 H     13  10   7     2.094166612533   109.92098275    30.15204941
 H     13  10   7     2.123595480844   110.88344885   156.97917451
 H     13  10   7     2.011569399136   110.21600739   275.55758494
 S      5   4   3     5.071951135161   136.64376794   226.87901782
 C     17   5   4     3.357419943666   122.32907961   277.94845538
 C     18  17   5     2.632640702403   110.25923928   356.71773626
 C     19  18  17     2.688246422204   110.38923217     2.70408569
 C     20  19  18     2.685155838130   116.35195226   353.31022839
 H     19  18  17     1.954056814370   113.57764703   174.99124161
 C     20  19  18     2.796099185279   122.91003187   169.17939332
 H     23  20  19     2.071928179251   105.12238344    11.25588796
 H     23  20  19     2.180764419565   109.94916693   262.57951600
 C     23  20  19     2.980219247330   117.40637032   128.51338744
 H     26  23  20     2.032117452817   106.00764411   185.72413592
 H     26  23  20     1.992974758668   117.27109806    62.23597611
 C     26  23  20     2.887683876789   110.05605393   304.26778576
 H     29  26  23     1.967772930265   111.49464662    16.89432389
 H     29  26  23     2.067928715758   115.20227855   258.92667042
 H     29  26  23     2.092021817987   109.22582105   133.41530727
 H      2   1   3     2.071210542502   125.21248830   188.36480265
 H     18  17   5     1.905004159909   128.01369849   179.30075244

---------------------
BASIS SET INFORMATION
---------------------
There are 3 groups of distinct atoms

 Group   1 Type S   : 10s7p1d contracted to 4s3p1d pattern {5311/511/1}
 Group   2 Type C   : 7s4p1d contracted to 3s2p1d pattern {511/31/1}
 Group   3 Type H   : 4s1p contracted to 2s1p pattern {31/1}

Atom   0S    basis set group =>   1
Atom   1C    basis set group =>   2
Atom   2C    basis set group =>   2
Atom   3C    basis set group =>   2
Atom   4C    basis set group =>   2
Atom   5H    basis set group =>   3
Atom   6C    basis set group =>   2
Atom   7H    basis set group =>   3
Atom   8H    basis set group =>   3
Atom   9C    basis set group =>   2
Atom  10H    basis set group =>   3
Atom  11H    basis set group =>   3
Atom  12C    basis set group =>   2
Atom  13H    basis set group =>   3
Atom  14H    basis set group =>   3
Atom  15H    basis set group =>   3
Atom  16S    basis set group =>   1
Atom  17C    basis set group =>   2
Atom  18C    basis set group =>   2
Atom  19C    basis set group =>   2
Atom  20C    basis set group =>   2
Atom  21H    basis set group =>   3
Atom  22C    basis set group =>   2
Atom  23H    basis set group =>   3
Atom  24H    basis set group =>   3
Atom  25C    basis set group =>   2
Atom  26H    basis set group =>   3
Atom  27H    basis set group =>   3
Atom  28C    basis set group =>   2
Atom  29H    basis set group =>   3
Atom  30H    basis set group =>   3
Atom  31H    basis set group =>   3
Atom  32H    basis set group =>   3
Atom  33H    basis set group =>   3


           ************************************************************
           *        Program running with 24 parallel MPI-processes    *
           *              working on a common directory               *
           ************************************************************
------------------------------------------------------------------------------
                           ORCA GTO INTEGRAL CALCULATION
------------------------------------------------------------------------------

                         BASIS SET STATISTICS AND STARTUP INFO

 # of primitive gaussian shells          ...  294
 # of primitive gaussian functions       ...  534
 # of contracted shells                  ...  154
 # of contracted basis functions         ...  322
 Highest angular momentum                ...    2
 Maximum contraction depth               ...    5
 Integral package used                   ... LIBINT
 Integral threshhold            Thresh   ...  1.000e-10
 Primitive cut-off              TCut     ...  1.000e-11


------------------------------ INTEGRAL EVALUATION ----------------------------


 * One electron integrals 
 Pre-screening matrix                    ... done
 Shell pair data                         ... done (   0.003 sec)



           ************************************************************
           *        Program running with 24 parallel MPI-processes    *
           *              working on a common directory               *
           ************************************************************
-------------------------------------------------------------------------------
                                 ORCA SCF
-------------------------------------------------------------------------------

------------
SCF SETTINGS
------------
Hamiltonian:
 Density Functional     Method          .... DFT(GTOs)
 Exchange Functional    Exchange        .... WB97X-D3
 Correlation Functional Correlation     .... WB97X-D3
 Gradients option       PostSCFGGA      .... off
 Hybrid DFT is turned on
   Fraction HF Exchange ScalHFX         ....  0.195728
   Scaling of DF-GGA-X  ScalDFX         ....  0.000000
   Scaling of DF-GGA-C  ScalDFC         ....  1.000000
   Scaling of DF-LDA-C  ScalLDAC        ....  1.000000
   Perturbative correction              ....  0.000000
   Density functional embedding theory  .... OFF
 Long-range corrected/Screened/Range-Separated Hybrid DFT is turned on
   Amount of maximum screened exact exchange              ....  0.804272
   Range separation parameter mu (erf(mu*r12)/r12)        ....  0.250000


General Settings:
 Integral files         IntName         .... config_6963
 Hartree-Fock type      HFTyp           .... RHF
 Total Charge           Charge          ....    0
 Multiplicity           Mult            ....    1
 Number of Electrons    NEL             ....  134
 Basis Dimension        Dim             ....  322
 Nuclear Repulsion      ENuc            ....   1309.8551577096 Eh

Convergence Acceleration:
 DIIS                   CNVDIIS         .... on
   Start iteration      DIISMaxIt       ....    12
   Startup error        DIISStart       ....  0.200000
   # of expansion vecs  DIISMaxEq       ....     5
   Bias factor          DIISBfac        ....   1.050
   Max. coefficient     DIISMaxC        ....  10.000
 Newton-Raphson         CNVNR           .... off
 SOSCF                  CNVSOSCF        .... on
   Start iteration      SOSCFMaxIt      ....   150
   Startup grad/error   SOSCFStart      ....  0.003300
 Level Shifting         CNVShift        .... on
   Level shift para.    LevelShift      ....    0.2500
   Turn off err/grad.   ShiftErr        ....    0.0010
 Zerner damping         CNVZerner       .... off
 Static damping         CNVDamp         .... on
   Fraction old density DampFac         ....    0.7000
   Max. Damping (<1)    DampMax         ....    0.9800
   Min. Damping (>=0)   DampMin         ....    0.0000
   Turn off err/grad.   DampErr         ....    0.1000
 Fernandez-Rico         CNVRico         .... off

SCF Procedure:
 Maximum # iterations   MaxIter         ....   125
 SCF integral mode      SCFMode         .... Direct
   Integral package                     .... LIBINT
 Reset frequency        DirectResetFreq ....    20
 Integral Threshold     Thresh          ....  1.000e-10 Eh
 Primitive CutOff       TCut            ....  1.000e-11 Eh

Convergence Tolerance:
 Convergence Check Mode ConvCheckMode   .... Total+1el-Energy
 Convergence forced     ConvForced      .... 0
 Energy Change          TolE            ....  1.000e-06 Eh
 1-El. energy change                    ....  1.000e-03 Eh
 Orbital Gradient       TolG            ....  5.000e-05
 Orbital Rotation angle TolX            ....  5.000e-05
 DIIS Error             TolErr          ....  1.000e-06


Diagonalization of the overlap matrix:
Smallest eigenvalue                        ... 6.610e-04
Time for diagonalization                   ...    0.015 sec
Threshold for overlap eigenvalues          ... 1.000e-08
Number of eigenvalues below threshold      ... 0
Time for construction of square roots      ...    0.027 sec
Total time needed                          ...    0.042 sec

-------------------
DFT GRID GENERATION
-------------------

General Integration Accuracy     IntAcc      ...  4.340
Radial Grid Type                 RadialGrid  ... Gauss-Chebyshev
Angular Grid (max. acc.)         AngularGrid ... Lebedev-110
Angular grid pruning method      GridPruning ... 3 (G Style)
Weight generation scheme         WeightScheme... Becke
Basis function cutoff            BFCut       ...    1.0000e-10
Integration weight cutoff        WCut        ...    1.0000e-14
Grids for H and He will be reduced by one unit

# of grid points (after initial pruning)     ...  41088 (   0.0 sec)
# of grid points (after weights+screening)   ...  36844 (   0.0 sec)
nearest neighbour list constructed           ...    0.0 sec
Grid point re-assignment to atoms done       ...    0.0 sec
Grid point division into batches done        ...    0.0 sec
Reduced shell lists constructed in    0.1 sec

Total number of grid points                  ...    36844
Total number of batches                      ...      589
Average number of points per batch           ...       62
Average number of grid points per atom       ...     1084
Average number of shells per batch           ...    76.12 (49.43%)
Average number of basis functions per batch  ...   148.12 (46.00%)
Average number of large shells per batch     ...    49.96 (65.64%)
Average number of large basis fcns per batch ...   101.81 (68.74%)
Maximum spatial batch extension              ...  15.62, 12.78, 11.46 au
Average spatial batch extension              ...   0.18,  0.15,  0.15 au

Time for grid setup =    0.146 sec

------------------------------
INITIAL GUESS: MODEL POTENTIAL
------------------------------
Loading Hartree-Fock densities                     ... done
Calculating cut-offs                               ... done
Setting up the integral package                    ... done
Initializing the effective Hamiltonian             ... done
Starting the Coulomb interaction                   ... done (   0.0 sec)
Reading the grid                                   ... done
Mapping shells                                     ... done
Starting the XC term evaluation                    ... done (   0.0 sec)
  promolecular density results
     # of electrons  =    133.972760308
     EX              =   -126.764436397
     EC              =     -4.627876761
     EX+EC           =   -131.392313157
Transforming the Hamiltonian                       ... done (   0.0 sec)
Diagonalizing the Hamiltonian                      ... done (   0.0 sec)
Back transforming the eigenvectors                 ... done (   0.0 sec)
Now organizing SCF variables                       ... done
                      ------------------
                      INITIAL GUESS DONE (   0.3 sec)
                      ------------------
--------------
SCF ITERATIONS
--------------
ITER       Energy         Delta-E        Max-DP      RMS-DP      [F,P]     Damp
               ***  Starting incremental Fock matrix formation  ***
  0  -1339.3828594150   0.000000000000 0.06708858  0.00165075  0.1580647 0.7000
  1  -1339.5768267888  -0.193967373773 0.04488934  0.00120012  0.0947324 0.7000
                               ***Turning on DIIS***
  2  -1339.6702919399  -0.093465151126 0.09544758  0.00224204  0.0483068 0.0000
  3  -1339.8115238094  -0.141231869434 0.04481225  0.00103493  0.0378078 0.0000
  4  -1339.8422199615  -0.030696152093 0.00738899  0.00020705  0.0075028 0.0000
                      *** Initiating the SOSCF procedure ***
                           *** Shutting down DIIS ***
                      *** Re-Reading the Fockian *** 
                      *** Removing any level shift *** 
ITER      Energy       Delta-E        Grad      Rot      Max-DP    RMS-DP
  5  -1339.84313961  -0.0009196534  0.001429  0.001429  0.003783  0.000104
               *** Restarting incremental Fock matrix formation ***
  6  -1339.84333160  -0.0001919838  0.001262  0.003540  0.003024  0.000069
  7  -1339.84339910  -0.0000675026  0.000706  0.004485  0.004034  0.000070
  8  -1339.84341728  -0.0000181760  0.000398  0.000834  0.000849  0.000021
  9  -1339.84342209  -0.0000048175  0.000170  0.000430  0.000314  0.000010
 10  -1339.84342263  -0.0000005396  0.000077  0.000213  0.000175  0.000004
                 **** Energy Check signals convergence ****
              ***Rediagonalizing the Fockian in SOSCF/NRSCF***

               *****************************************************
               *                     SUCCESS                       *
               *           SCF CONVERGED AFTER  11 CYCLES          *
               *****************************************************

Setting up the final grid:

General Integration Accuracy     IntAcc      ...  4.670
Radial Grid Type                 RadialGrid  ... Gauss-Chebyshev
Angular Grid (max. acc.)         AngularGrid ... Lebedev-302
Angular grid pruning method      GridPruning ... 3 (G Style)
Weight generation scheme         WeightScheme... Becke
Basis function cutoff            BFCut       ...    1.0000e-10
Integration weight cutoff        WCut        ...    1.0000e-14
Grids for H and He will be reduced by one unit

# of grid points (after initial pruning)     ... 161752 (   0.0 sec)
# of grid points (after weights+screening)   ... 142222 (   0.1 sec)
nearest neighbour list constructed           ...    0.0 sec
Grid point re-assignment to atoms done       ...    0.0 sec
Grid point division into batches done        ...    0.5 sec
Reduced shell lists constructed in    0.5 sec

Total number of grid points                  ...   142222
Total number of batches                      ...     2238
Average number of points per batch           ...       63
Average number of grid points per atom       ...     4183
Average number of shells per batch           ...    70.13 (45.54%)
Average number of basis functions per batch  ...   136.32 (42.33%)
Average number of large shells per batch     ...    44.62 (63.63%)
Average number of large basis fcns per batch ...    90.52 (66.40%)
Maximum spatial batch extension              ...  15.16, 12.57, 10.32 au
Average spatial batch extension              ...   0.12,  0.10,  0.10 au

Final grid set up in    0.9 sec
Final integration                            ... done (   0.3 sec)
Change in XC energy                          ...     0.007463882
Integrated number of electrons               ...   134.000375870
Previous integrated no of electrons          ...   133.991608982

----------------
TOTAL SCF ENERGY
----------------

Total Energy       :        -1339.83595906 Eh          -36458.78998 eV

Components:
Nuclear Repulsion  :         1309.85515771 Eh           35642.97089 eV
Electronic Energy  :        -2649.69111677 Eh          -72101.76087 eV
One Electron Energy:        -4436.17538580 Eh         -120714.46925 eV
Two Electron Energy:         1786.48426903 Eh           48612.70838 eV

Virial components:
Potential Energy   :        -2671.73182984 Eh          -72701.51916 eV
Kinetic Energy     :         1331.89587078 Eh           36242.72919 eV
Virial Ratio       :            2.00596149


DFT components:
N(Alpha)           :       67.000187935033 electrons
N(Beta)            :       67.000187935033 electrons
N(Total)           :      134.000375870066 electrons
E(XC)              :      -94.335748373550 Eh       
DFET-embed. en.    :        0.000000000000 Eh       

---------------
SCF CONVERGENCE
---------------

  Last Energy change         ...   -3.0518e-07  Tolerance :   1.0000e-06
  Last MAX-Density change    ...    3.8747e-05  Tolerance :   1.0000e-05
  Last RMS-Density change    ...    8.1108e-07  Tolerance :   1.0000e-06
  Last Orbital Gradient      ...    1.2572e-05  Tolerance :   5.0000e-05
  Last Orbital Rotation      ...    2.2097e-05  Tolerance :   5.0000e-05

             **** THE GBW FILE WAS UPDATED (config_6963.gbw) ****
             **** DENSITY FILE WAS UPDATED (config_6963.scfp) ****
             **** ENERGY FILE WAS UPDATED (config_6963.en.tmp) ****
             **** THE GBW FILE WAS UPDATED (config_6963.gbw) ****
             **** DENSITY FILE WAS UPDATED (config_6963.scfp) ****
----------------
ORBITAL ENERGIES
----------------

  NO   OCC          E(Eh)            E(eV) 
   0   2.0000     -88.969248     -2420.9763 
   1   2.0000     -88.966566     -2420.9034 
   2   2.0000     -10.330009      -281.0938 
   3   2.0000     -10.323871      -280.9268 
   4   2.0000     -10.322133      -280.8795 
   5   2.0000     -10.313189      -280.6361 
   6   2.0000     -10.303982      -280.3856 
   7   2.0000     -10.301737      -280.3245 
   8   2.0000     -10.293578      -280.1025 
   9   2.0000     -10.293504      -280.1005 
  10   2.0000     -10.286407      -279.9074 
  11   2.0000     -10.285764      -279.8899 
  12   2.0000     -10.284753      -279.8624 
  13   2.0000     -10.282262      -279.7946 
  14   2.0000     -10.276619      -279.6410 
  15   2.0000     -10.262511      -279.2571 
  16   2.0000      -8.083715      -219.9691 
  17   2.0000      -8.081719      -219.9147 
  18   2.0000      -6.042284      -164.4189 
  19   2.0000      -6.040149      -164.3608 
  20   2.0000      -6.038262      -164.3095 
  21   2.0000      -6.035888      -164.2449 
  22   2.0000      -6.034415      -164.2048 
  23   2.0000      -6.032801      -164.1609 
  24   2.0000      -1.013584       -27.5810 
  25   2.0000      -0.987031       -26.8585 
  26   2.0000      -0.913062       -24.8457 
  27   2.0000      -0.905276       -24.6338 
  28   2.0000      -0.875363       -23.8198 
  29   2.0000      -0.849778       -23.1236 
  30   2.0000      -0.844384       -22.9769 
  31   2.0000      -0.819291       -22.2941 
  32   2.0000      -0.784923       -21.3588 
  33   2.0000      -0.767077       -20.8732 
  34   2.0000      -0.717224       -19.5167 
  35   2.0000      -0.704423       -19.1683 
  36   2.0000      -0.692527       -18.8446 
  37   2.0000      -0.671169       -18.2634 
  38   2.0000      -0.645973       -17.5778 
  39   2.0000      -0.629207       -17.1216 
  40   2.0000      -0.587124       -15.9765 
  41   2.0000      -0.578362       -15.7380 
  42   2.0000      -0.553340       -15.0572 
  43   2.0000      -0.548797       -14.9335 
  44   2.0000      -0.543293       -14.7838 
  45   2.0000      -0.535161       -14.5625 
  46   2.0000      -0.526154       -14.3174 
  47   2.0000      -0.511157       -13.9093 
  48   2.0000      -0.509493       -13.8640 
  49   2.0000      -0.499546       -13.5933 
  50   2.0000      -0.489436       -13.3182 
  51   2.0000      -0.475468       -12.9381 
  52   2.0000      -0.473035       -12.8719 
  53   2.0000      -0.467440       -12.7197 
  54   2.0000      -0.457367       -12.4456 
  55   2.0000      -0.453783       -12.3481 
  56   2.0000      -0.441948       -12.0260 
  57   2.0000      -0.434458       -11.8222 
  58   2.0000      -0.427157       -11.6235 
  59   2.0000      -0.420297       -11.4369 
  60   2.0000      -0.417275       -11.3546 
  61   2.0000      -0.412474       -11.2240 
  62   2.0000      -0.406755       -11.0684 
  63   2.0000      -0.354700        -9.6519 
  64   2.0000      -0.334587        -9.1046 
  65   2.0000      -0.326356        -8.8806 
  66   2.0000      -0.289955        -7.8901 
  67   0.0000       0.021832         0.5941 
  68   0.0000       0.068196         1.8557 
  69   0.0000       0.106387         2.8949 
  70   0.0000       0.118155         3.2152 
  71   0.0000       0.134596         3.6625 
  72   0.0000       0.143634         3.9085 
  73   0.0000       0.151365         4.1188 
  74   0.0000       0.156449         4.2572 
  75   0.0000       0.169093         4.6012 
  76   0.0000       0.173007         4.7078 
  77   0.0000       0.179001         4.8709 
  78   0.0000       0.189606         5.1594 
  79   0.0000       0.192993         5.2516 
  80   0.0000       0.206490         5.6189 
  81   0.0000       0.208918         5.6849 
  82   0.0000       0.213136         5.7997 
  83   0.0000       0.215774         5.8715 
  84   0.0000       0.223349         6.0776 
  85   0.0000       0.228989         6.2311 
  86   0.0000       0.236875         6.4457 
  87   0.0000       0.244055         6.6411 
  88   0.0000       0.246215         6.6999 
  89   0.0000       0.256652         6.9839 
  90   0.0000       0.257570         7.0088 
  91   0.0000       0.266509         7.2521 
  92   0.0000       0.287862         7.8331 
  93   0.0000       0.300659         8.1814 
  94   0.0000       0.303162         8.2495 
  95   0.0000       0.318970         8.6796 
  96   0.0000       0.325806         8.8656 
  97   0.0000       0.345640         9.4053 
  98   0.0000       0.363017         9.8782 
  99   0.0000       0.368417        10.0251 
 100   0.0000       0.400166        10.8891 
 101   0.0000       0.402954        10.9649 
 102   0.0000       0.413409        11.2494 
 103   0.0000       0.427705        11.6385 
 104   0.0000       0.437314        11.8999 
 105   0.0000       0.444959        12.1079 
 106   0.0000       0.460005        12.5174 
 107   0.0000       0.472622        12.8607 
 108   0.0000       0.482049        13.1172 
 109   0.0000       0.493974        13.4417 
 110   0.0000       0.507240        13.8027 
 111   0.0000       0.515675        14.0322 
 112   0.0000       0.530736        14.4421 
 113   0.0000       0.533875        14.5275 
 114   0.0000       0.537839        14.6354 
 115   0.0000       0.544692        14.8218 
 116   0.0000       0.548159        14.9162 
 117   0.0000       0.557939        15.1823 
 118   0.0000       0.572206        15.5705 
 119   0.0000       0.575404        15.6575 
 120   0.0000       0.586758        15.9665 
 121   0.0000       0.598997        16.2995 
 122   0.0000       0.606225        16.4962 
 123   0.0000       0.613723        16.7002 
 124   0.0000       0.622827        16.9480 
 125   0.0000       0.638888        17.3850 
 126   0.0000       0.643652        17.5147 
 127   0.0000       0.656066        17.8525 
 128   0.0000       0.666418        18.1341 
 129   0.0000       0.672960        18.3122 
 130   0.0000       0.680638        18.5211 
 131   0.0000       0.688684        18.7400 
 132   0.0000       0.696831        18.9617 
 133   0.0000       0.698551        19.0085 
 134   0.0000       0.709411        19.3040 
 135   0.0000       0.715717        19.4756 
 136   0.0000       0.723769        19.6947 
 137   0.0000       0.729102        19.8399 
 138   0.0000       0.736672        20.0459 
 139   0.0000       0.740054        20.1379 
 140   0.0000       0.741399        20.1745 
 141   0.0000       0.754140        20.5212 
 142   0.0000       0.758339        20.6355 
 143   0.0000       0.763716        20.7818 
 144   0.0000       0.765764        20.8375 
 145   0.0000       0.770451        20.9650 
 146   0.0000       0.774204        21.0672 
 147   0.0000       0.776401        21.1270 
 148   0.0000       0.778865        21.1940 
 149   0.0000       0.785457        21.3734 
 150   0.0000       0.789655        21.4876 
 151   0.0000       0.791977        21.5508 
 152   0.0000       0.798380        21.7250 
 153   0.0000       0.801544        21.8111 
 154   0.0000       0.803606        21.8672 
 155   0.0000       0.809735        22.0340 
 156   0.0000       0.812612        22.1123 
 157   0.0000       0.819334        22.2952 
 158   0.0000       0.828291        22.5389 
 159   0.0000       0.832408        22.6510 
 160   0.0000       0.837417        22.7873 
 161   0.0000       0.842236        22.9184 
 162   0.0000       0.851043        23.1581 
 163   0.0000       0.854233        23.2449 
 164   0.0000       0.864678        23.5291 
 165   0.0000       0.868782        23.6408 
 166   0.0000       0.883886        24.0517 
 167   0.0000       0.889483        24.2041 
 168   0.0000       0.899186        24.4681 
 169   0.0000       0.909109        24.7381 
 170   0.0000       0.917839        24.9757 
 171   0.0000       0.920224        25.0406 
 172   0.0000       0.931525        25.3481 
 173   0.0000       0.941796        25.6276 
 174   0.0000       0.956119        26.0173 
 175   0.0000       0.959293        26.1037 
 176   0.0000       0.967241        26.3200 
 177   0.0000       0.991346        26.9759 
 178   0.0000       0.993208        27.0266 
 179   0.0000       1.027900        27.9706 
 180   0.0000       1.046477        28.4761 
 181   0.0000       1.057518        28.7765 
 182   0.0000       1.069236        29.0954 
 183   0.0000       1.112313        30.2676 
 184   0.0000       1.132345        30.8127 
 185   0.0000       1.147549        31.2264 
 186   0.0000       1.154527        31.4163 
 187   0.0000       1.172283        31.8994 
 188   0.0000       1.183644        32.2086 
 189   0.0000       1.197747        32.5923 
 190   0.0000       1.219525        33.1850 
 191   0.0000       1.238386        33.6982 
 192   0.0000       1.251060        34.0431 
 193   0.0000       1.273694        34.6590 
 194   0.0000       1.294337        35.2207 
 195   0.0000       1.305755        35.5314 
 196   0.0000       1.312393        35.7120 
 197   0.0000       1.334667        36.3181 
 198   0.0000       1.352796        36.8115 
 199   0.0000       1.360697        37.0264 
 200   0.0000       1.383672        37.6516 
 201   0.0000       1.404221        38.2108 
 202   0.0000       1.441755        39.2322 
 203   0.0000       1.452886        39.5350 
 204   0.0000       1.464615        39.8542 
 205   0.0000       1.488408        40.5016 
 206   0.0000       1.511624        41.1334 
 207   0.0000       1.522979        41.4424 
 208   0.0000       1.554263        42.2937 
 209   0.0000       1.566240        42.6196 
 210   0.0000       1.573827        42.8260 
 211   0.0000       1.626349        44.2552 
 212   0.0000       1.632566        44.4244 
 213   0.0000       1.646450        44.8022 
 214   0.0000       1.655038        45.0359 
 215   0.0000       1.667193        45.3666 
 216   0.0000       1.686162        45.8828 
 217   0.0000       1.719814        46.7985 
 218   0.0000       1.734695        47.2035 
 219   0.0000       1.762320        47.9552 
 220   0.0000       1.770330        48.1731 
 221   0.0000       1.789197        48.6865 
 222   0.0000       1.804720        49.1089 
 223   0.0000       1.815595        49.4049 
 224   0.0000       1.827418        49.7266 
 225   0.0000       1.833223        49.8845 
 226   0.0000       1.847252        50.2663 
 227   0.0000       1.860148        50.6172 
 228   0.0000       1.866692        50.7953 
 229   0.0000       1.871176        50.9173 
 230   0.0000       1.872474        50.9526 
 231   0.0000       1.890189        51.4347 
 232   0.0000       1.897422        51.6315 
 233   0.0000       1.899582        51.6903 
 234   0.0000       1.911267        52.0082 
 235   0.0000       1.912512        52.0421 
 236   0.0000       1.921832        52.2957 
 237   0.0000       1.930883        52.5420 
 238   0.0000       1.939993        52.7899 
 239   0.0000       1.949895        53.0593 
 240   0.0000       1.956205        53.2311 
 241   0.0000       1.963108        53.4189 
 242   0.0000       1.964952        53.4691 
 243   0.0000       1.980063        53.8803 
 244   0.0000       1.999800        54.4173 
 245   0.0000       2.009951        54.6935 
 246   0.0000       2.023103        55.0514 
 247   0.0000       2.031172        55.2710 
 248   0.0000       2.033695        55.3397 
 249   0.0000       2.041690        55.5572 
 250   0.0000       2.054463        55.9048 
 251   0.0000       2.064996        56.1914 
 252   0.0000       2.081396        56.6377 
 253   0.0000       2.086826        56.7854 
 254   0.0000       2.093030        56.9543 
 255   0.0000       2.111920        57.4683 
 256   0.0000       2.117516        57.6205 
 257   0.0000       2.129617        57.9498 
 258   0.0000       2.141885        58.2837 
 259   0.0000       2.164367        58.8954 
 260   0.0000       2.171439        59.0879 
 261   0.0000       2.196248        59.7630 
 262   0.0000       2.212354        60.2012 
 263   0.0000       2.234272        60.7976 
 264   0.0000       2.247194        61.1493 
 265   0.0000       2.265388        61.6443 
 266   0.0000       2.292191        62.3737 
 267   0.0000       2.299672        62.5773 
 268   0.0000       2.323336        63.2212 
 269   0.0000       2.335554        63.5537 
 270   0.0000       2.346726        63.8577 
 271   0.0000       2.359462        64.2042 
 272   0.0000       2.384132        64.8755 
 273   0.0000       2.389872        65.0317 
 274   0.0000       2.408196        65.5303 
 275   0.0000       2.417203        65.7754 
 276   0.0000       2.438808        66.3633 
 277   0.0000       2.446695        66.5780 
 278   0.0000       2.462596        67.0106 
 279   0.0000       2.490857        67.7797 
 280   0.0000       2.506598        68.2080 
 281   0.0000       2.514243        68.4160 
 282   0.0000       2.519024        68.5461 
 283   0.0000       2.539846        69.1127 
 284   0.0000       2.551470        69.4290 
 285   0.0000       2.555861        69.5485 
 286   0.0000       2.573014        70.0153 
 287   0.0000       2.601640        70.7942 
 288   0.0000       2.627992        71.5113 
 289   0.0000       2.654312        72.2275 
 290   0.0000       2.660310        72.3907 
 291   0.0000       2.685659        73.0805 
 292   0.0000       2.705655        73.6246 
 293   0.0000       2.716355        73.9158 
 294   0.0000       2.736674        74.4687 
 295   0.0000       2.746395        74.7332 
 296   0.0000       2.780245        75.6543 
 297   0.0000       2.797540        76.1249 
 298   0.0000       2.805710        76.3473 
 299   0.0000       2.832624        77.0796 
 300   0.0000       2.880652        78.3865 
 301   0.0000       2.885439        78.5168 
 302   0.0000       2.901166        78.9448 
 303   0.0000       2.962608        80.6167 
 304   0.0000       2.970069        80.8197 
 305   0.0000       2.983509        81.1854 
 306   0.0000       2.992507        81.4302 
 307   0.0000       3.029794        82.4449 
 308   0.0000       3.054217        83.1095 
 309   0.0000       3.073817        83.6428 
 310   0.0000       3.083314        83.9012 
 311   0.0000       3.103516        84.4510 
 312   0.0000       3.125104        85.0384 
 313   0.0000       3.154798        85.8464 
 314   0.0000       3.166652        86.1690 
 315   0.0000       3.182433        86.5984 
 316   0.0000       3.197267        87.0021 
 317   0.0000       3.217408        87.5501 
 318   0.0000       3.254943        88.5715 
 319   0.0000       3.278708        89.2182 
 320   0.0000       3.459932        94.1495 
 321   0.0000       3.495747        95.1241 

                    ********************************
                    * MULLIKEN POPULATION ANALYSIS *
                    ********************************

-----------------------
MULLIKEN ATOMIC CHARGES
-----------------------
   0 S :    0.104335
   1 C :   -0.134917
   2 C :   -0.076756
   3 C :    0.070595
   4 C :   -0.145553
   5 H :   -0.028592
   6 C :    0.047075
   7 H :    0.004685
   8 H :    0.014463
   9 C :   -0.007470
  10 H :    0.011042
  11 H :    0.028354
  12 C :   -0.077354
  13 H :    0.032425
  14 H :    0.048386
  15 H :    0.024769
  16 S :    0.107803
  17 C :   -0.054396
  18 C :   -0.006301
  19 C :   -0.061698
  20 C :   -0.104098
  21 H :   -0.002663
  22 C :    0.003476
  23 H :    0.010924
  24 H :    0.052051
  25 C :   -0.018161
  26 H :    0.023169
  27 H :    0.037769
  28 C :   -0.055059
  29 H :    0.016962
  30 H :    0.027803
  31 H :    0.034837
  32 H :    0.064165
  33 H :    0.007931
Sum of atomic charges:   -0.0000000

--------------------------------
MULLIKEN REDUCED ORBITAL CHARGES
--------------------------------
  0 S s       :     5.850822  s :     5.850822
      pz      :     3.006402  p :     9.939478
      px      :     3.661748
      py      :     3.271329
      dz2     :     0.021756  d :     0.105364
      dxz     :     0.020638
      dyz     :     0.035156
      dx2y2   :     0.016002
      dxy     :     0.011812
  1 C s       :     3.209200  s :     3.209200
      pz      :     0.843659  p :     2.893207
      px      :     1.107567
      py      :     0.941981
      dz2     :     0.007103  d :     0.032510
      dxz     :     0.003422
      dyz     :     0.011432
      dx2y2   :     0.004456
      dxy     :     0.006097
  2 C s       :     3.064091  s :     3.064091
      pz      :     0.998465  p :     2.967657
      px      :     0.999667
      py      :     0.969525
      dz2     :     0.012505  d :     0.045008
      dxz     :     0.006784
      dyz     :     0.010811
      dx2y2   :     0.006774
      dxy     :     0.008134
  3 C s       :     3.185800  s :     3.185800
      pz      :     0.902169  p :     2.708229
      px      :     0.989452
      py      :     0.816608
      dz2     :     0.008947  d :     0.035376
      dxz     :     0.006284
      dyz     :     0.011189
      dx2y2   :     0.004980
      dxy     :     0.003976
  4 C s       :     3.053906  s :     3.053906
      pz      :     1.020083  p :     3.044748
      px      :     1.087859
      py      :     0.936805
      dz2     :     0.011200  d :     0.046898
      dxz     :     0.007525
      dyz     :     0.013524
      dx2y2   :     0.006923
      dxy     :     0.007727
  5 H s       :     1.001788  s :     1.001788
      pz      :     0.005465  p :     0.026804
      px      :     0.006152
      py      :     0.015187
  6 C s       :     2.943867  s :     2.943867
      pz      :     1.011359  p :     2.971399
      px      :     0.969667
      py      :     0.990374
      dz2     :     0.007027  d :     0.037659
      dxz     :     0.009441
      dyz     :     0.004351
      dx2y2   :     0.008874
      dxy     :     0.007966
  7 H s       :     0.970705  s :     0.970705
      pz      :     0.012152  p :     0.024610
      px      :     0.006203
      py      :     0.006255
  8 H s       :     0.961252  s :     0.961252
      pz      :     0.005694  p :     0.024285
      px      :     0.005611
      py      :     0.012980
  9 C s       :     3.000317  s :     3.000317
      pz      :     1.020680  p :     2.970414
      px      :     0.956130
      py      :     0.993604
      dz2     :     0.007758  d :     0.036739
      dxz     :     0.007661
      dyz     :     0.005085
      dx2y2   :     0.009416
      dxy     :     0.006818
 10 H s       :     0.964094  s :     0.964094
      pz      :     0.013233  p :     0.024864
      px      :     0.006426
      py      :     0.005205
 11 H s       :     0.948880  s :     0.948880
      pz      :     0.007098  p :     0.022766
      px      :     0.004654
      py      :     0.011015
 12 C s       :     3.046677  s :     3.046677
      pz      :     1.020556  p :     3.004528
      px      :     0.997968
      py      :     0.986003
      dz2     :     0.010119  d :     0.026150
      dxz     :     0.001724
      dyz     :     0.003037
      dx2y2   :     0.006028
      dxy     :     0.005241
 13 H s       :     0.944489  s :     0.944489
      pz      :     0.005649  p :     0.023086
      px      :     0.006751
      py      :     0.010686
 14 H s       :     0.929925  s :     0.929925
      pz      :     0.005076  p :     0.021689
      px      :     0.012872
      py      :     0.003740
 15 H s       :     0.950219  s :     0.950219
      pz      :     0.014457  p :     0.025012
      px      :     0.005390
      py      :     0.005166
 16 S s       :     5.841238  s :     5.841238
      pz      :     2.975633  p :     9.935694
      px      :     3.496391
      py      :     3.463670
      dz2     :     0.021021  d :     0.115265
      dxz     :     0.031416
      dyz     :     0.035430
      dx2y2   :     0.012753
      dxy     :     0.014646
 17 C s       :     3.133363  s :     3.133363
      pz      :     0.848422  p :     2.887034
      px      :     1.039886
      py      :     0.998726
      dz2     :     0.008019  d :     0.033999
      dxz     :     0.005970
      dyz     :     0.009298
      dx2y2   :     0.006558
      dxy     :     0.004153
 18 C s       :     3.181010  s :     3.181010
      pz      :     0.873566  p :     2.790532
      px      :     0.978057
      py      :     0.938909
      dz2     :     0.009513  d :     0.034758
      dxz     :     0.006372
      dyz     :     0.008668
      dx2y2   :     0.005487
      dxy     :     0.004718
 19 C s       :     3.080078  s :     3.080078
      pz      :     0.919888  p :     2.937627
      px      :     1.026922
      py      :     0.990817
      dz2     :     0.009978  d :     0.043992
      dxz     :     0.008667
      dyz     :     0.012399
      dx2y2   :     0.006255
      dxy     :     0.006694
 20 C s       :     3.043496  s :     3.043496
      pz      :     0.949945  p :     3.016200
      px      :     1.029935
      py      :     1.036320
      dz2     :     0.009406  d :     0.044403
      dxz     :     0.011230
      dyz     :     0.011250
      dx2y2   :     0.007277
      dxy     :     0.005241
 21 H s       :     0.975980  s :     0.975980
      pz      :     0.012033  p :     0.026682
      px      :     0.006739
      py      :     0.007911
 22 C s       :     3.007581  s :     3.007581
      pz      :     0.976770  p :     2.953192
      px      :     0.978481
      py      :     0.997942
      dz2     :     0.005609  d :     0.035751
      dxz     :     0.007793
      dyz     :     0.007501
      dx2y2   :     0.005108
      dxy     :     0.009741
 23 H s       :     0.966322  s :     0.966322
      pz      :     0.009804  p :     0.022753
      px      :     0.006394
      py      :     0.006555
 24 H s       :     0.927681  s :     0.927681
      pz      :     0.004487  p :     0.020268
      px      :     0.008190
      py      :     0.007591
 25 C s       :     3.026095  s :     3.026095
      pz      :     1.006067  p :     2.956995
      px      :     0.956787
      py      :     0.994141
      dz2     :     0.007174  d :     0.035071
      dxz     :     0.007613
      dyz     :     0.006547
      dx2y2   :     0.006476
      dxy     :     0.007261
 26 H s       :     0.953205  s :     0.953205
      pz      :     0.004936  p :     0.023626
      px      :     0.005758
      py      :     0.012933
 27 H s       :     0.936569  s :     0.936569
      pz      :     0.012207  p :     0.025662
      px      :     0.005561
      py      :     0.007894
 28 C s       :     2.996547  s :     2.996547
      pz      :     1.023378  p :     3.029809
      px      :     1.000334
      py      :     1.006096
      dz2     :     0.003588  d :     0.028704
      dxz     :     0.005357
      dyz     :     0.008594
      dx2y2   :     0.004514
      dxy     :     0.006651
 29 H s       :     0.955867  s :     0.955867
      pz      :     0.012329  p :     0.027171
      px      :     0.006522
      py      :     0.008320
 30 H s       :     0.948731  s :     0.948731
      pz      :     0.005974  p :     0.023466
      px      :     0.010875
      py      :     0.006618
 31 H s       :     0.942135  s :     0.942135
      pz      :     0.009210  p :     0.023028
      px      :     0.004823
      py      :     0.008996
 32 H s       :     0.912525  s :     0.912525
      pz      :     0.012017  p :     0.023310
      px      :     0.005684
      py      :     0.005609
 33 H s       :     0.964298  s :     0.964298
      pz      :     0.015014  p :     0.027771
      px      :     0.006420
      py      :     0.006338


                     *******************************
                     * LOEWDIN POPULATION ANALYSIS *
                     *******************************

----------------------
LOEWDIN ATOMIC CHARGES
----------------------
   0 S :    0.404235
   1 C :   -0.189836
   2 C :   -0.061984
   3 C :   -0.046336
   4 C :   -0.192111
   5 H :    0.017276
   6 C :   -0.042169
   7 H :    0.028032
   8 H :    0.030923
   9 C :   -0.034422
  10 H :    0.017745
  11 H :    0.027964
  12 C :   -0.068171
  13 H :    0.026252
  14 H :    0.034585
  15 H :    0.017045
  16 S :    0.430949
  17 C :   -0.158687
  18 C :   -0.058999
  19 C :   -0.064106
  20 C :   -0.221730
  21 H :    0.025342
  22 C :   -0.044633
  23 H :    0.028673
  24 H :    0.037449
  25 C :   -0.031930
  26 H :    0.022944
  27 H :    0.019250
  28 C :   -0.064303
  29 H :    0.015273
  30 H :    0.024871
  31 H :    0.032197
  32 H :    0.033314
  33 H :    0.005098

-------------------------------
LOEWDIN REDUCED ORBITAL CHARGES
-------------------------------
  0 S s       :     5.512005  s :     5.512005
      pz      :     3.014093  p :     9.953867
      px      :     3.620841
      py      :     3.318932
      dz2     :     0.028159  d :     0.129893
      dxz     :     0.025255
      dyz     :     0.045409
      dx2y2   :     0.018795
      dxy     :     0.012276
  1 C s       :     2.942155  s :     2.942155
      pz      :     1.004922  p :     3.171180
      px      :     1.109807
      py      :     1.056451
      dz2     :     0.016913  d :     0.076501
      dxz     :     0.006261
      dyz     :     0.029088
      dx2y2   :     0.011673
      dxy     :     0.012566
  2 C s       :     2.858887  s :     2.858887
      pz      :     1.043893  p :     3.091659
      px      :     0.984083
      py      :     1.063683
      dz2     :     0.032606  d :     0.111438
      dxz     :     0.014591
      dyz     :     0.028547
      dx2y2   :     0.018072
      dxy     :     0.017622
  3 C s       :     2.844527  s :     2.844527
      pz      :     1.039441  p :     3.105105
      px      :     1.007213
      py      :     1.058451
      dz2     :     0.026746  d :     0.096705
      dxz     :     0.014450
      dyz     :     0.032829
      dx2y2   :     0.013239
      dxy     :     0.009441
  4 C s       :     2.897256  s :     2.897256
      pz      :     1.056372  p :     3.181895
      px      :     1.074027
      py      :     1.051495
      dz2     :     0.029455  d :     0.112960
      dxz     :     0.016042
      dyz     :     0.035765
      dx2y2   :     0.015207
      dxy     :     0.016490
  5 H s       :     0.901934  s :     0.901934
      pz      :     0.018391  p :     0.080789
      px      :     0.019599
      py      :     0.042799
  6 C s       :     2.814276  s :     2.814276
      pz      :     1.053707  p :     3.133337
      px      :     1.033010
      py      :     1.046620
      dz2     :     0.017951  d :     0.094556
      dxz     :     0.021751
      dyz     :     0.011940
      dx2y2   :     0.023816
      dxy     :     0.019099
  7 H s       :     0.901662  s :     0.901662
      pz      :     0.034448  p :     0.070305
      px      :     0.019208
      py      :     0.016650
  8 H s       :     0.898163  s :     0.898163
      pz      :     0.016458  p :     0.070914
      px      :     0.017954
      py      :     0.036503
  9 C s       :     2.824711  s :     2.824711
      pz      :     1.070508  p :     3.120732
      px      :     1.017145
      py      :     1.033079
      dz2     :     0.018338  d :     0.088979
      dxz     :     0.017697
      dyz     :     0.013516
      dx2y2   :     0.023940
      dxy     :     0.015488
 10 H s       :     0.907314  s :     0.907314
      pz      :     0.038206  p :     0.074941
      px      :     0.020599
      py      :     0.016136
 11 H s       :     0.905197  s :     0.905197
      pz      :     0.019098  p :     0.066838
      px      :     0.014995
      py      :     0.032745
 12 C s       :     2.850034  s :     2.850034
      pz      :     1.070972  p :     3.153249
      px      :     1.045709
      py      :     1.036567
      dz2     :     0.024076  d :     0.064888
      dxz     :     0.004608
      dyz     :     0.007601
      dx2y2   :     0.014863
      dxy     :     0.013741
 13 H s       :     0.908987  s :     0.908987
      pz      :     0.014224  p :     0.064761
      px      :     0.019078
      py      :     0.031459
 14 H s       :     0.904600  s :     0.904600
      pz      :     0.012932  p :     0.060815
      px      :     0.036873
      py      :     0.011010
 15 H s       :     0.910870  s :     0.910870
      pz      :     0.041716  p :     0.072085
      px      :     0.014715
      py      :     0.015654
 16 S s       :     5.488212  s :     5.488212
      pz      :     2.977964  p :     9.937548
      px      :     3.488878
      py      :     3.470706
      dz2     :     0.027733  d :     0.143291
      dxz     :     0.039801
      dyz     :     0.045606
      dx2y2   :     0.013448
      dxy     :     0.016702
 17 C s       :     2.917053  s :     2.917053
      pz      :     1.019033  p :     3.161641
      px      :     1.076171
      py      :     1.066437
      dz2     :     0.020005  d :     0.079993
      dxz     :     0.013711
      dyz     :     0.022162
      dx2y2   :     0.012991
      dxy     :     0.011125
 18 C s       :     2.855623  s :     2.855623
      pz      :     1.037936  p :     3.112476
      px      :     1.030482
      py      :     1.044058
      dz2     :     0.027991  d :     0.090900
      dxz     :     0.014975
      dyz     :     0.023110
      dx2y2   :     0.010912
      dxy     :     0.013912
 19 C s       :     2.856445  s :     2.856445
      pz      :     1.044724  p :     3.096624
      px      :     1.012224
      py      :     1.039676
      dz2     :     0.028015  d :     0.111038
      dxz     :     0.020460
      dyz     :     0.033549
      dx2y2   :     0.013088
      dxy     :     0.015926
 20 C s       :     2.899788  s :     2.899788
      pz      :     1.051042  p :     3.213558
      px      :     1.081700
      py      :     1.080816
      dz2     :     0.024942  d :     0.108383
      dxz     :     0.025949
      dyz     :     0.029885
      dx2y2   :     0.015044
      dxy     :     0.012563
 21 H s       :     0.893949  s :     0.893949
      pz      :     0.036292  p :     0.080710
      px      :     0.020236
      py      :     0.024182
 22 C s       :     2.842847  s :     2.842847
      pz      :     1.047441  p :     3.113932
      px      :     1.033578
      py      :     1.032912
      dz2     :     0.012616  d :     0.087855
      dxz     :     0.020450
      dyz     :     0.018529
      dx2y2   :     0.011973
      dxy     :     0.024286
 23 H s       :     0.904545  s :     0.904545
      pz      :     0.029341  p :     0.066782
      px      :     0.018444
      py      :     0.018998
 24 H s       :     0.904904  s :     0.904904
      pz      :     0.011990  p :     0.057646
      px      :     0.023573
      py      :     0.022084
 25 C s       :     2.824987  s :     2.824987
      pz      :     1.046707  p :     3.120779
      px      :     1.018407
      py      :     1.055665
      dz2     :     0.016548  d :     0.086164
      dxz     :     0.020368
      dyz     :     0.015509
      dx2y2   :     0.015624
      dxy     :     0.018116
 26 H s       :     0.907358  s :     0.907358
      pz      :     0.015452  p :     0.069698
      px      :     0.018261
      py      :     0.035986
 27 H s       :     0.904807  s :     0.904807
      pz      :     0.036210  p :     0.075943
      px      :     0.017713
      py      :     0.022020
 28 C s       :     2.822650  s :     2.822650
      pz      :     1.069871  p :     3.168631
      px      :     1.043969
      py      :     1.054791
      dz2     :     0.009387  d :     0.073022
      dxz     :     0.012788
      dyz     :     0.022552
      dx2y2   :     0.009736
      dxy     :     0.018558
 29 H s       :     0.906889  s :     0.906889
      pz      :     0.034608  p :     0.077838
      px      :     0.019427
      py      :     0.023802
 30 H s       :     0.909276  s :     0.909276
      pz      :     0.016407  p :     0.065853
      px      :     0.030635
      py      :     0.018811
 31 H s       :     0.904566  s :     0.904566
      pz      :     0.024243  p :     0.063237
      px      :     0.013446
      py      :     0.025547
 32 H s       :     0.893449  s :     0.893449
      pz      :     0.037804  p :     0.073237
      px      :     0.018484
      py      :     0.016949
 33 H s       :     0.905166  s :     0.905166
      pz      :     0.046566  p :     0.089736
      px      :     0.021807
      py      :     0.021363


                      *****************************
                      * MAYER POPULATION ANALYSIS *
                      *****************************

  NA   - Mulliken gross atomic population
  ZA   - Total nuclear charge
  QA   - Mulliken gross atomic charge
  VA   - Mayer's total valence
  BVA  - Mayer's bonded valence
  FA   - Mayer's free valence

  ATOM       NA         ZA         QA         VA         BVA        FA
  0 S     15.8957    16.0000     0.1043     2.4829     2.4829     0.0000
  1 C      6.1349     6.0000    -0.1349     3.8319     3.8319    -0.0000
  2 C      6.0768     6.0000    -0.0768     3.9981     3.9981    -0.0000
  3 C      5.9294     6.0000     0.0706     3.9093     3.9093    -0.0000
  4 C      6.1456     6.0000    -0.1456     3.8718     3.8718    -0.0000
  5 H      1.0286     1.0000    -0.0286     1.0094     1.0094    -0.0000
  6 C      5.9529     6.0000     0.0471     3.9873     3.9873    -0.0000
  7 H      0.9953     1.0000     0.0047     0.9852     0.9852     0.0000
  8 H      0.9855     1.0000     0.0145     0.9879     0.9879    -0.0000
  9 C      6.0075     6.0000    -0.0075     4.0596     4.0596    -0.0000
 10 H      0.9890     1.0000     0.0110     0.9837     0.9837    -0.0000
 11 H      0.9716     1.0000     0.0284     0.9787     0.9787     0.0000
 12 C      6.0774     6.0000    -0.0774     3.9985     3.9985    -0.0000
 13 H      0.9676     1.0000     0.0324     1.0028     1.0028     0.0000
 14 H      0.9516     1.0000     0.0484     0.9855     0.9855     0.0000
 15 H      0.9752     1.0000     0.0248     0.9853     0.9853     0.0000
 16 S     15.8922    16.0000     0.1078     2.5294     2.5294     0.0000
 17 C      6.0544     6.0000    -0.0544     3.8657     3.8657    -0.0000
 18 C      6.0063     6.0000    -0.0063     3.9412     3.9412    -0.0000
 19 C      6.0617     6.0000    -0.0617     3.9898     3.9898     0.0000
 20 C      6.1041     6.0000    -0.1041     3.8584     3.8584    -0.0000
 21 H      1.0027     1.0000    -0.0027     1.0003     1.0003    -0.0000
 22 C      5.9965     6.0000     0.0035     3.9836     3.9836    -0.0000
 23 H      0.9891     1.0000     0.0109     0.9845     0.9845    -0.0000
 24 H      0.9479     1.0000     0.0521     0.9792     0.9792    -0.0000
 25 C      6.0182     6.0000    -0.0182     4.0575     4.0575    -0.0000
 26 H      0.9768     1.0000     0.0232     0.9787     0.9787    -0.0000
 27 H      0.9622     1.0000     0.0378     0.9898     0.9898     0.0000
 28 C      6.0551     6.0000    -0.0551     3.9927     3.9927     0.0000
 29 H      0.9830     1.0000     0.0170     1.0055     1.0055     0.0000
 30 H      0.9722     1.0000     0.0278     0.9861     0.9861     0.0000
 31 H      0.9652     1.0000     0.0348     0.9867     0.9867     0.0000
 32 H      0.9358     1.0000     0.0642     1.0035     1.0035    -0.0000
 33 H      0.9921     1.0000     0.0079     1.0051     1.0051    -0.0000

  Mayer bond orders larger than 0.100000
B(  0-S ,  1-C ) :   1.1319 B(  0-S ,  4-C ) :   1.1582 B(  1-C ,  2-C ) :   1.5891 
B(  1-C ,  4-C ) :   0.1005 B(  1-C , 32-H ) :   0.9673 B(  2-C ,  3-C ) :   1.2526 
B(  2-C ,  6-C ) :   1.0339 B(  3-C ,  4-C ) :   1.5358 B(  3-C ,  5-H ) :   1.0137 
B(  4-C , 20-C ) :   1.0437 B(  6-C ,  7-H ) :   0.9304 B(  6-C ,  8-H ) :   0.9336 
B(  6-C ,  9-C ) :   1.0737 B(  9-C , 10-H ) :   0.9540 B(  9-C , 11-H ) :   0.9524 
B(  9-C , 12-C ) :   1.0642 B( 12-C , 13-H ) :   0.9770 B( 12-C , 14-H ) :   0.9770 
B( 12-C , 15-H ) :   0.9774 B( 16-S , 17-C ) :   1.1730 B( 16-S , 20-C ) :   1.1665 
B( 17-C , 18-C ) :   1.5819 B( 17-C , 20-C ) :   0.1063 B( 17-C , 33-H ) :   0.9779 
B( 18-C , 19-C ) :   1.2555 B( 18-C , 21-H ) :   1.0073 B( 19-C , 20-C ) :   1.5263 
B( 19-C , 22-C ) :   1.0600 B( 22-C , 23-H ) :   0.9337 B( 22-C , 24-H ) :   0.9290 
B( 22-C , 25-C ) :   1.0632 B( 25-C , 26-H ) :   0.9599 B( 25-C , 27-H ) :   0.9654 
B( 25-C , 28-C ) :   1.0605 B( 28-C , 29-H ) :   0.9783 B( 28-C , 30-H ) :   0.9749 
B( 28-C , 31-H ) :   0.9792 

-------
TIMINGS
-------

Total SCF time: 0 days 0 hours 0 min 20 sec 

Total time                  ....      20.631 sec
Sum of individual times     ....      19.767 sec  ( 95.8%)

Fock matrix formation       ....      18.098 sec  ( 87.7%)
  XC integration            ....       1.494 sec  (  8.3% of F)
    Basis function eval.    ....       0.143 sec  (  9.6% of XC)
    Density eval.           ....       0.104 sec  (  6.9% of XC)
    XC-Functional eval.     ....       0.110 sec  (  7.4% of XC)
    XC-Potential eval.      ....       0.126 sec  (  8.4% of XC)
Diagonalization             ....       0.138 sec  (  0.7%)
Density matrix formation    ....       0.023 sec  (  0.1%)
Population analysis         ....       0.054 sec  (  0.3%)
Initial guess               ....       0.169 sec  (  0.8%)
Orbital Transformation      ....       0.000 sec  (  0.0%)
Orbital Orthonormalization  ....       0.000 sec  (  0.0%)
DIIS solution               ....       0.161 sec  (  0.8%)
SOSCF solution              ....       0.128 sec  (  0.6%)
Grid generation             ....       0.996 sec  (  4.8%)


-------------------------------------------------------------------------------
                          DFT DISPERSION CORRECTION                            
                                                                               
                              DFTD3 V3.1  Rev 1                                
                              USING zero damping                               
-------------------------------------------------------------------------------
The omegaB97X-D3 functional is recognized. Fit by Chai et al.
Active option DFTDOPT                   ...         3   

molecular C6(AA) [au] = 14148.381124 


            DFT-D V3
 parameters
 s6 scaling factor         :     1.0000 
 rs6 scaling factor        :     1.2810 
 s8 scaling factor         :     1.0000 
 rs8 scaling factor        :     1.0940 
 Damping factor alpha6     :    14.0000 
 Damping factor alpha8     :    16.0000 
 ad hoc parameters k1-k3   :    16.0000     1.3333    -4.0000 

 Edisp/kcal,au: -9.663213368756  -0.015399309074 
 E6   /kcal   :  -4.433400953 
 E8   /kcal   :  -5.229812416 
 % E8         :  54.120841757 

-------------------------   ----------------
Dispersion correction           -0.015399309
-------------------------   ----------------


-------------------------   --------------------
FINAL SINGLE POINT ENERGY     -1339.851358367005
-------------------------   --------------------


                            ***************************************
                            *     ORCA property calculations      *
                            ***************************************

                                    ---------------------
                                    Active property flags
                                    ---------------------
   (+) Dipole Moment


------------------------------------------------------------------------------
                       ORCA ELECTRIC PROPERTIES CALCULATION
------------------------------------------------------------------------------

Dipole Moment Calculation                       ... on
Quadrupole Moment Calculation                   ... off
Polarizability Calculation                      ... off
GBWName                                         ... config_6963.gbw
Electron density file                           ... config_6963.scfp
The origin for moment calculation is the CENTER OF MASS  = (-119.333276, 31.860574 -170.586248)

-------------
DIPOLE MOMENT
-------------
                                X             Y             Z
Electronic contribution:     -1.65791     -15.56913      13.07756
Nuclear contribution   :      1.50962      16.17712     -13.12042
                        -----------------------------------------
Total Dipole Moment    :     -0.14829       0.60798      -0.04286
                        -----------------------------------------
Magnitude (a.u.)       :      0.62727
Magnitude (Debye)      :      1.59440



--------------------
Rotational spectrum 
--------------------
 
Rotational constants in cm-1:     0.021984     0.008505     0.007507 
Rotational constants in MHz :   659.065929   254.960351   225.046986 

 Dipole components along the rotational axes: 
x,y,z [a.u.] :    -0.114145    -0.333450    -0.518895 
x,y,z [Debye]:    -0.290134    -0.847562    -1.318926 

 

Timings for individual modules:

Sum of individual times         ...       21.785 sec (=   0.363 min)
GTO integral calculation        ...        0.775 sec (=   0.013 min)   3.6 %
SCF iterations                  ...       21.011 sec (=   0.350 min)  96.4 %
                             ****ORCA TERMINATED NORMALLY****
TOTAL RUN TIME: 0 days 0 hours 0 minutes 22 seconds 489 msec
