
                                 *****************
                                 * O   R   C   A *
                                 *****************

           --- An Ab Initio, DFT and Semiempirical electronic structure package ---

                  #######################################################
                  #                        -***-                        #
                  #          Department of theory and spectroscopy      #
                  #               Directorship: Frank Neese             #
                  #        Max Planck Institute fuer Kohlenforschung    #
                  #                Kaiser Wilhelm Platz 1               #
                  #                 D-45470 Muelheim/Ruhr               #
                  #                      Germany                        #
                  #                                                     #
                  #                  All rights reserved                #
                  #                        -***-                        #
                  #######################################################


                         Program Version 4.2.1 -  RELEASE  -


 With contributions from (in alphabetic order):
   Daniel Aravena         : Magnetic Suceptibility
   Michael Atanasov       : Ab Initio Ligand Field Theory (pilot matlab implementation)
   Alexander A. Auer      : GIAO ZORA, VPT2
   Ute Becker             : Parallelization
   Giovanni Bistoni       : ED, misc. LED, open-shell LED, HFLD
   Martin Brehm           : Molecular dynamics
   Dmytro Bykov           : SCF Hessian
   Vijay G. Chilkuri      : MRCI spin determinant printing, contributions to CSF-ICE
   Dipayan Datta          : RHF DLPNO-CCSD density
   Achintya Kumar Dutta   : EOM-CC, STEOM-CC
   Dmitry Ganyushin       : Spin-Orbit,Spin-Spin,Magnetic field MRCI
   Miquel Garcia          : C-PCM Hessian, Gaussian charge scheme
   Yang Guo               : DLPNO-NEVPT2, CIM, IAO-localization
   Andreas Hansen         : Spin unrestricted coupled pair/coupled cluster methods
   Benjamin Helmich-Paris : CASSCF linear response (MC-RPA)
   Lee Huntington         : MR-EOM, pCC
   Robert Izsak           : Overlap fitted RIJCOSX, COSX-SCS-MP3, EOM
   Christian Kollmar      : KDIIS, OOCD, Brueckner-CCSD(T), CCSD density
   Simone Kossmann        : Meta GGA functionals, TD-DFT gradient, OOMP2, MP2 Hessian
   Martin Krupicka        : AUTO-CI
   Lucas Lang             : DCDCAS
   Dagmar Lenk            : GEPOL surface, SMD
   Dimitrios Liakos       : Extrapolation schemes; Compound Job, initial MDCI parallelization
   Dimitrios Manganas     : Further ROCIS development; embedding schemes
   Dimitrios Pantazis     : SARC Basis sets
   Taras Petrenko         : DFT Hessian,TD-DFT gradient, ASA, ECA, R-Raman, ABS, FL, XAS/XES, NRVS
   Peter Pinski           : DLPNO-MP2, DLPNO-MP2 Gradient
   Christoph Reimann      : Effective Core Potentials
   Marius Retegan         : Local ZFS, SOC
   Christoph Riplinger    : Optimizer, TS searches, QM/MM, DLPNO-CCSD(T), (RO)-DLPNO pert. Triples
   Tobias Risthaus        : Range-separated hybrids, TD-DFT gradient, RPA, STAB
   Michael Roemelt        : Original ROCIS implementation
   Masaaki Saitow         : Open-shell DLPNO-CCSD energy and density
   Barbara Sandhoefer     : DKH picture change effects
   Avijit Sen             : IP-ROCIS
   Kantharuban Sivalingam : CASSCF convergence, NEVPT2, FIC-MRCI
   Bernardo de Souza      : ESD, SOC TD-DFT
   Georgi Stoychev        : AutoAux, RI-MP2 NMR
   Willem Van den Heuvel  : Paramagnetic NMR
   Boris Wezisla          : Elementary symmetry handling
   Frank Wennmohs         : Technical directorship


 We gratefully acknowledge several colleagues who have allowed us to
 interface, adapt or use parts of their codes:
   Stefan Grimme, W. Hujo, H. Kruse,             : VdW corrections, initial TS optimization,
                  C. Bannwarth                     DFT functionals, gCP, sTDA/sTD-DF
   Ed Valeev, F. Pavosevic, A. Kumar             : LibInt (2-el integral package), F12 methods
   Garnet Chan, S. Sharma, J. Yang, R. Olivares  : DMRG
   Ulf Ekstrom                                   : XCFun DFT Library
   Mihaly Kallay                                 : mrcc  (arbitrary order and MRCC methods)
   Andreas Klamt, Michael Diedenhofen            : otool_cosmo (COSMO solvation model)
   Jiri Pittner, Ondrej Demel                    : Mk-CCSD
   Frank Weinhold                                : gennbo (NPA and NBO analysis)
   Christopher J. Cramer and Donald G. Truhlar   : smd solvation model
   Lars Goerigk                                  : TD-DFT with DH, B97 family of functionals
   V. Asgeirsson, H. Jonsson                     : NEB implementation
   FAccTs GmbH                                   : IRC, NEB, NEB-TS, Multilevel, MM, QM/MM, CI optimization
   S Lehtola, MJT Oliveira, MAL Marques          : LibXC Library


 Your calculation uses the libint2 library for the computation of 2-el integrals
 For citations please refer to: http://libint.valeyev.net

 Your ORCA version has been built with support for libXC version: 4.2.3
 For citations please refer to: https://tddft.org/programs/libxc/

 This ORCA versions uses:
   CBLAS   interface :  Fast vector & matrix operations
   LAPACKE interface :  Fast linear algebra routines
   SCALAPACK package :  Parallel linear algebra routines


Your calculation utilizes the atom-pairwise dispersion correction
with the zero-damping scheme (D30)
Cite in your paper:
S.Grimme, J.Antony, S.Ehrlich and H.Krieg, J.Chem.Phys., 132, (2010), 154104 
   

XCFun DFT library Copyright 2009-2010 Ulf Ekstrom and contributors.
See http://admol.org/xcfun for more information. This is free soft-
ware; see the source code for copying conditions. There is ABSOLUTELY
NO WARRANTY; not even for MERCHANTABILITY or FITNESS FOR A PARTICULAR
PURPOSE. For details see the documentation. Scientific users of this 
library should cite U. Ekstrom, L. Visscher, R. Bast, A. J. Thorvald-
sen and K. Ruud; J.Chem.Theor.Comp. 2010, DOI: 10.1021/ct100117s
XCFun Version 0.99 
----- Orbital basis set information -----
Your calculation utilizes the basis: def2-SVP
   F. Weigend and R. Ahlrichs, Phys. Chem. Chem. Phys. 7, 3297 (2005).

================================================================================
                                        WARNINGS
                       Please study these warnings very carefully!
================================================================================


INFO   : the flag for use of LIBINT has been found!

================================================================================
                                       INPUT FILE
================================================================================
NAME = config_1715.inp
|  1> ! wB97X-D3 SP def2-SVP
|  2> %pal
|  3> nprocs 24
|  4> end
|  5> 
|  6> * xyz 0 1
|  7> S 	 -49.2473 	 22.3009 	 25.9699 	 
|  8> C 	 -50.3255 	 23.6171 	 26.1887 	 
|  9> C 	 -51.6339 	 23.2241 	 26.2469 	 
| 10> C 	 -51.7473 	 21.8385 	 25.9061 	 
| 11> C 	 -50.5844 	 21.2472 	 25.5515 	 
| 12> H 	 -52.6374 	 21.2479 	 25.8104 	 
| 13> C 	 -52.9123 	 24.0981 	 26.2671 	 
| 14> H 	 -53.7213 	 23.5305 	 25.7762 	 
| 15> H 	 -52.7603 	 24.9071 	 25.5599 	 
| 16> C 	 -53.578 	 24.4627 	 27.6253 	 
| 17> H 	 -52.938 	 25.171 	 28.1438 	 
| 18> H 	 -54.5944 	 24.9455 	 27.575 	 
| 19> C 	 -53.5954 	 23.2434 	 28.5117 	 
| 20> H 	 -54.4538 	 23.2401 	 29.2161 	 
| 21> H 	 -53.5748 	 22.2789 	 27.9323 	 
| 22> H 	 -52.5942 	 23.2127 	 29.0397 	 
| 23> S 	 -49.624 	 18.5779 	 25.7454 	 
| 24> C 	 -50.0727 	 17.4892 	 24.4144 	 
| 25> C 	 -50.462 	 18.2447 	 23.3245 	 
| 26> C 	 -50.6443 	 19.628 	 23.5906 	 
| 27> C 	 -50.3299 	 19.9803 	 24.8419 	 
| 28> H 	 -50.7627 	 17.8087 	 22.3853 	 
| 29> C 	 -51.1283 	 20.6795 	 22.5684 	 
| 30> H 	 -50.7396 	 21.6848 	 22.8106 	 
| 31> H 	 -52.2049 	 20.6593 	 22.7713 	 
| 32> C 	 -50.9898 	 20.3971 	 21.0602 	 
| 33> H 	 -51.1848 	 19.3648 	 20.8423 	 
| 34> H 	 -49.9701 	 20.5196 	 20.7886 	 
| 35> C 	 -51.8559 	 21.4353 	 20.2605 	 
| 36> H 	 -52.8692 	 21.4558 	 20.6563 	 
| 37> H 	 -51.7859 	 20.9078 	 19.2948 	 
| 38> H 	 -51.3321 	 22.403 	 20.3759 	 
| 39> H 	 -49.9818 	 24.5962 	 26.2772 	 
| 40> H 	 -50.176 	 16.459 	 24.6215 	 
| 41> *
| 42> 
| 43>                          ****END OF INPUT****
================================================================================

                       ****************************
                       * Single Point Calculation *
                       ****************************

---------------------------------
CARTESIAN COORDINATES (ANGSTROEM)
---------------------------------
  S    -49.247300   22.300900   25.969900
  C    -50.325500   23.617100   26.188700
  C    -51.633900   23.224100   26.246900
  C    -51.747300   21.838500   25.906100
  C    -50.584400   21.247200   25.551500
  H    -52.637400   21.247900   25.810400
  C    -52.912300   24.098100   26.267100
  H    -53.721300   23.530500   25.776200
  H    -52.760300   24.907100   25.559900
  C    -53.578000   24.462700   27.625300
  H    -52.938000   25.171000   28.143800
  H    -54.594400   24.945500   27.575000
  C    -53.595400   23.243400   28.511700
  H    -54.453800   23.240100   29.216100
  H    -53.574800   22.278900   27.932300
  H    -52.594200   23.212700   29.039700
  S    -49.624000   18.577900   25.745400
  C    -50.072700   17.489200   24.414400
  C    -50.462000   18.244700   23.324500
  C    -50.644300   19.628000   23.590600
  C    -50.329900   19.980300   24.841900
  H    -50.762700   17.808700   22.385300
  C    -51.128300   20.679500   22.568400
  H    -50.739600   21.684800   22.810600
  H    -52.204900   20.659300   22.771300
  C    -50.989800   20.397100   21.060200
  H    -51.184800   19.364800   20.842300
  H    -49.970100   20.519600   20.788600
  C    -51.855900   21.435300   20.260500
  H    -52.869200   21.455800   20.656300
  H    -51.785900   20.907800   19.294800
  H    -51.332100   22.403000   20.375900
  H    -49.981800   24.596200   26.277200
  H    -50.176000   16.459000   24.621500

----------------------------
CARTESIAN COORDINATES (A.U.)
----------------------------
  NO LB      ZA    FRAG     MASS         X           Y           Z
   0 S    16.0000    0    32.060  -93.063910   42.142594   49.075999
   1 C     6.0000    0    12.011  -95.101413   44.629851   49.489471
   2 C     6.0000    0    12.011  -97.573930   43.887189   49.599453
   3 C     6.0000    0    12.011  -97.788225   41.268784   48.955434
   4 C     6.0000    0    12.011  -95.590663   40.151389   48.285337
   5 H     1.0000    0     1.008  -99.470270   40.152712   48.774587
   6 C     6.0000    0    12.011  -99.989756   45.538809   49.637625
   7 H     1.0000    0     1.008  -101.518545   44.466201   48.709959
   8 H     1.0000    0     1.008  -99.702518   47.067598   48.301211
   9 C     6.0000    0    12.011  -101.247747   46.227803   52.204251
  10 H     1.0000    0     1.008  -100.038322   47.566297   53.184074
  11 H     1.0000    0     1.008  -103.168464   47.140163   52.109198
  12 C     6.0000    0    12.011  -101.280628   43.923660   53.879305
  13 H     1.0000    0     1.008  -102.902769   43.917424   55.210428
  14 H     1.0000    0     1.008  -101.241700   42.101020   52.784397
  15 H     1.0000    0     1.008  -99.388634   43.865646   54.877080
  16 S    16.0000    0    32.060  -93.775770   35.107143   48.651755
  17 C     6.0000    0    12.011  -94.623690   33.049798   46.136530
  18 C     6.0000    0    12.011  -95.359360   34.477486   44.076917
  19 C     6.0000    0    12.011  -95.703857   37.091545   44.579773
  20 C     6.0000    0    12.011  -95.109727   37.757295   46.944388
  21 H     1.0000    0     1.008  -95.927601   33.653566   42.302086
  22 C     6.0000    0    12.011  -96.618485   39.078592   42.648095
  23 H     1.0000    0     1.008  -95.883948   40.978333   43.105787
  24 H     1.0000    0     1.008  -98.652964   39.040419   43.031521
  25 C     6.0000    0    12.011  -96.356758   38.544933   39.798010
  26 H     1.0000    0     1.008  -96.725254   36.594169   39.386239
  27 H     1.0000    0     1.008  -94.429804   38.776424   39.284761
  28 C     6.0000    0    12.011  -97.993449   40.506847   38.286796
  29 H     1.0000    0     1.008  -99.908309   40.545586   39.034750
  30 H     1.0000    0     1.008  -97.861169   39.510016   36.461888
  31 H     1.0000    0     1.008  -97.003611   42.335535   38.504871
  32 H     1.0000    0     1.008  -94.451914   46.480082   49.656712
  33 H     1.0000    0     1.008  -94.818898   31.103002   46.527892

--------------------------------
INTERNAL COORDINATES (ANGSTROEM)
--------------------------------
 S      0   0   0     0.000000000000     0.00000000     0.00000000
 C      1   0   0     1.715450704625     0.00000000     0.00000000
 C      2   1   0     1.367386850895   112.72569904     0.00000000
 C      3   2   1     1.431394969951   110.11383351   351.29701731
 C      4   3   2     1.351929458219   114.68848694   357.20813929
 H      4   3   2     1.072494689964   128.32022011   183.44684552
 C      3   2   1     1.548738389787   128.91736504   187.93416126
 H      7   3   2     1.103464349220   108.00436770   149.30012937
 H      7   3   2     1.085226630709   107.25202760    40.81930096
 C      7   3   2     1.555891027675   119.78861801   264.29572716
 H     10   7   3     1.086338409521   108.50389187    70.86340045
 H     10   7   3     1.126363569191   116.58652916   190.20124405
 C     10   7   3     1.507547747171   109.18840852   317.31522389
 H     13  10   7     1.110423707420   112.60086009   209.68396129
 H     13  10   7     1.125339490998   112.97064104   334.73761537
 H     13  10   7     1.132310880456   106.61250960    85.46348747
 S      5   4   3     2.843435925074   133.09713528   151.01525566
 C     17   5   4     1.777121374583   116.02407023    85.40542761
 C     18  17   5     1.382105911282   109.07828211    18.47672293
 C     19  18  17     1.420408881273   114.88299176   349.16363821
 C     20  19  18     1.337428256020   113.68070704     3.73776730
 H     19  18  17     1.078245394147   122.98398537   178.78357784
 C     20  19  18     1.544280120315   125.40343368   182.54325149
 H     23  20  19     1.104706576427   111.36011399   207.85531696
 H     23  20  19     1.095739024586    99.95168847    93.05024153
 C     23  20  19     1.540648970402   119.66985065   338.78086966
 H     26  23  20     1.072915979935   111.02871288    37.74013347
 H     26  23  20     1.062337469922   108.38680093   284.69974346
 C     26  23  20     1.570830525550   109.12669709   166.31480544
 H     29  26  23     1.088050908735   109.92222864   308.66321805
 H     29  26  23     1.102602711769    95.43312947   192.06786550
 H     29  26  23     1.106402679859   105.30389105    70.35643699
 H      2   1   3     1.041440708826   121.65107249   179.19538358
 H     18  17   5     1.055875627146   118.39336939   209.55854052

---------------------------
INTERNAL COORDINATES (A.U.)
---------------------------
 S      0   0   0     0.000000000000     0.00000000     0.00000000
 C      1   0   0     3.241732027984     0.00000000     0.00000000
 C      2   1   0     2.583986667316   112.72569904     0.00000000
 C      3   2   1     2.704944482679   110.11383351   351.29701731
 C      4   3   2     2.554776428414   114.68848694   357.20813929
 H      4   3   2     2.026721244116   128.32022011   183.44684552
 C      3   2   1     2.926691409788   128.91736504   187.93416126
 H      7   3   2     2.085245418572   108.00436770   149.30012937
 H      7   3   2     2.050781125278   107.25202760    40.81930096
 C      7   3   2     2.940207936531   119.78861801   264.29572716
 H     10   7   3     2.052882082754   108.50389187    70.86340045
 H     10   7   3     2.128518672996   116.58652916   190.20124405
 C     10   7   3     2.848852375963   109.18840852   317.31522389
 H     13  10   7     2.098396699637   112.60086009   209.68396129
 H     13  10   7     2.126583445673   112.97064104   334.73761537
 H     13  10   7     2.139757462522   106.61250960    85.46348747
 S      5   4   3     5.373315177742   133.09713528   151.01525566
 C     17   5   4     3.358272704700   116.02407023    85.40542761
 C     18  17   5     2.611801660396   109.07828211    18.47672293
 C     19  18  17     2.684183783796   114.88299176   349.16363821
 C     20  19  18     2.527373127645   113.68070704     3.73776730
 H     19  18  17     2.037588500100   122.98398537   178.78357784
 C     20  19  18     2.918266501454   125.40343368   182.54325149
 H     23  20  19     2.087592887788   111.36011399   207.85531696
 H     23  20  19     2.070646670717    99.95168847    93.05024153
 C     23  20  19     2.911404622567   119.66985065   338.78086966
 H     26  23  20     2.027517366785   111.02871288    37.74013347
 H     26  23  20     2.007526879955   108.38680093   284.69974346
 C     26  23  20     2.968439496093   109.12669709   166.31480544
 H     29  26  23     2.056118237274   109.92222864   308.66321805
 H     29  26  23     2.083617159762    95.43312947   192.06786550
 H     29  26  23     2.090798058771   105.30389105    70.35643699
 H      2   1   3     1.968037724398   121.65107249   179.19538358
 H     18  17   5     1.995315766787   118.39336939   209.55854052

---------------------
BASIS SET INFORMATION
---------------------
There are 3 groups of distinct atoms

 Group   1 Type S   : 10s7p1d contracted to 4s3p1d pattern {5311/511/1}
 Group   2 Type C   : 7s4p1d contracted to 3s2p1d pattern {511/31/1}
 Group   3 Type H   : 4s1p contracted to 2s1p pattern {31/1}

Atom   0S    basis set group =>   1
Atom   1C    basis set group =>   2
Atom   2C    basis set group =>   2
Atom   3C    basis set group =>   2
Atom   4C    basis set group =>   2
Atom   5H    basis set group =>   3
Atom   6C    basis set group =>   2
Atom   7H    basis set group =>   3
Atom   8H    basis set group =>   3
Atom   9C    basis set group =>   2
Atom  10H    basis set group =>   3
Atom  11H    basis set group =>   3
Atom  12C    basis set group =>   2
Atom  13H    basis set group =>   3
Atom  14H    basis set group =>   3
Atom  15H    basis set group =>   3
Atom  16S    basis set group =>   1
Atom  17C    basis set group =>   2
Atom  18C    basis set group =>   2
Atom  19C    basis set group =>   2
Atom  20C    basis set group =>   2
Atom  21H    basis set group =>   3
Atom  22C    basis set group =>   2
Atom  23H    basis set group =>   3
Atom  24H    basis set group =>   3
Atom  25C    basis set group =>   2
Atom  26H    basis set group =>   3
Atom  27H    basis set group =>   3
Atom  28C    basis set group =>   2
Atom  29H    basis set group =>   3
Atom  30H    basis set group =>   3
Atom  31H    basis set group =>   3
Atom  32H    basis set group =>   3
Atom  33H    basis set group =>   3


           ************************************************************
           *        Program running with 24 parallel MPI-processes    *
           *              working on a common directory               *
           ************************************************************
------------------------------------------------------------------------------
                           ORCA GTO INTEGRAL CALCULATION
------------------------------------------------------------------------------

                         BASIS SET STATISTICS AND STARTUP INFO

 # of primitive gaussian shells          ...  294
 # of primitive gaussian functions       ...  534
 # of contracted shells                  ...  154
 # of contracted basis functions         ...  322
 Highest angular momentum                ...    2
 Maximum contraction depth               ...    5
 Integral package used                   ... LIBINT
 Integral threshhold            Thresh   ...  1.000e-10
 Primitive cut-off              TCut     ...  1.000e-11


------------------------------ INTEGRAL EVALUATION ----------------------------


 * One electron integrals 
 Pre-screening matrix                    ... done
 Shell pair data                         ... done (   0.003 sec)



           ************************************************************
           *        Program running with 24 parallel MPI-processes    *
           *              working on a common directory               *
           ************************************************************
-------------------------------------------------------------------------------
                                 ORCA SCF
-------------------------------------------------------------------------------

------------
SCF SETTINGS
------------
Hamiltonian:
 Density Functional     Method          .... DFT(GTOs)
 Exchange Functional    Exchange        .... WB97X-D3
 Correlation Functional Correlation     .... WB97X-D3
 Gradients option       PostSCFGGA      .... off
 Hybrid DFT is turned on
   Fraction HF Exchange ScalHFX         ....  0.195728
   Scaling of DF-GGA-X  ScalDFX         ....  0.000000
   Scaling of DF-GGA-C  ScalDFC         ....  1.000000
   Scaling of DF-LDA-C  ScalLDAC        ....  1.000000
   Perturbative correction              ....  0.000000
   Density functional embedding theory  .... OFF
 Long-range corrected/Screened/Range-Separated Hybrid DFT is turned on
   Amount of maximum screened exact exchange              ....  0.804272
   Range separation parameter mu (erf(mu*r12)/r12)        ....  0.250000


General Settings:
 Integral files         IntName         .... config_1715
 Hartree-Fock type      HFTyp           .... RHF
 Total Charge           Charge          ....    0
 Multiplicity           Mult            ....    1
 Number of Electrons    NEL             ....  134
 Basis Dimension        Dim             ....  322
 Nuclear Repulsion      ENuc            ....   1278.1313211892 Eh

Convergence Acceleration:
 DIIS                   CNVDIIS         .... on
   Start iteration      DIISMaxIt       ....    12
   Startup error        DIISStart       ....  0.200000
   # of expansion vecs  DIISMaxEq       ....     5
   Bias factor          DIISBfac        ....   1.050
   Max. coefficient     DIISMaxC        ....  10.000
 Newton-Raphson         CNVNR           .... off
 SOSCF                  CNVSOSCF        .... on
   Start iteration      SOSCFMaxIt      ....   150
   Startup grad/error   SOSCFStart      ....  0.003300
 Level Shifting         CNVShift        .... on
   Level shift para.    LevelShift      ....    0.2500
   Turn off err/grad.   ShiftErr        ....    0.0010
 Zerner damping         CNVZerner       .... off
 Static damping         CNVDamp         .... on
   Fraction old density DampFac         ....    0.7000
   Max. Damping (<1)    DampMax         ....    0.9800
   Min. Damping (>=0)   DampMin         ....    0.0000
   Turn off err/grad.   DampErr         ....    0.1000
 Fernandez-Rico         CNVRico         .... off

SCF Procedure:
 Maximum # iterations   MaxIter         ....   125
 SCF integral mode      SCFMode         .... Direct
   Integral package                     .... LIBINT
 Reset frequency        DirectResetFreq ....    20
 Integral Threshold     Thresh          ....  1.000e-10 Eh
 Primitive CutOff       TCut            ....  1.000e-11 Eh

Convergence Tolerance:
 Convergence Check Mode ConvCheckMode   .... Total+1el-Energy
 Convergence forced     ConvForced      .... 0
 Energy Change          TolE            ....  1.000e-06 Eh
 1-El. energy change                    ....  1.000e-03 Eh
 Orbital Gradient       TolG            ....  5.000e-05
 Orbital Rotation angle TolX            ....  5.000e-05
 DIIS Error             TolErr          ....  1.000e-06


Diagonalization of the overlap matrix:
Smallest eigenvalue                        ... 6.007e-04
Time for diagonalization                   ...    0.014 sec
Threshold for overlap eigenvalues          ... 1.000e-08
Number of eigenvalues below threshold      ... 0
Time for construction of square roots      ...    0.028 sec
Total time needed                          ...    0.042 sec

-------------------
DFT GRID GENERATION
-------------------

General Integration Accuracy     IntAcc      ...  4.340
Radial Grid Type                 RadialGrid  ... Gauss-Chebyshev
Angular Grid (max. acc.)         AngularGrid ... Lebedev-110
Angular grid pruning method      GridPruning ... 3 (G Style)
Weight generation scheme         WeightScheme... Becke
Basis function cutoff            BFCut       ...    1.0000e-10
Integration weight cutoff        WCut        ...    1.0000e-14
Grids for H and He will be reduced by one unit

# of grid points (after initial pruning)     ...  41088 (   0.0 sec)
# of grid points (after weights+screening)   ...  36932 (   0.0 sec)
nearest neighbour list constructed           ...    0.0 sec
Grid point re-assignment to atoms done       ...    0.0 sec
Grid point division into batches done        ...    0.0 sec
Reduced shell lists constructed in    0.1 sec

Total number of grid points                  ...    36932
Total number of batches                      ...      594
Average number of points per batch           ...       62
Average number of grid points per atom       ...     1086
Average number of shells per batch           ...    71.58 (46.48%)
Average number of basis functions per batch  ...   141.04 (43.80%)
Average number of large shells per batch     ...    46.04 (64.32%)
Average number of large basis fcns per batch ...    93.58 (66.35%)
Maximum spatial batch extension              ...  13.57, 15.12, 15.91 au
Average spatial batch extension              ...   0.16,  0.16,  0.18 au

Time for grid setup =    0.153 sec

------------------------------
INITIAL GUESS: MODEL POTENTIAL
------------------------------
Loading Hartree-Fock densities                     ... done
Calculating cut-offs                               ... done
Setting up the integral package                    ... done
Initializing the effective Hamiltonian             ... done
Starting the Coulomb interaction                   ... done (   0.0 sec)
Reading the grid                                   ... done
Mapping shells                                     ... done
Starting the XC term evaluation                    ... done (   0.0 sec)
  promolecular density results
     # of electrons  =    133.987788307
     EX              =   -126.714525033
     EC              =     -4.618674683
     EX+EC           =   -131.333199716
Transforming the Hamiltonian                       ... done (   0.0 sec)
Diagonalizing the Hamiltonian                      ... done (   0.0 sec)
Back transforming the eigenvectors                 ... done (   0.0 sec)
Now organizing SCF variables                       ... done
                      ------------------
                      INITIAL GUESS DONE (   0.3 sec)
                      ------------------
--------------
SCF ITERATIONS
--------------
ITER       Energy         Delta-E        Max-DP      RMS-DP      [F,P]     Damp
               ***  Starting incremental Fock matrix formation  ***
  0  -1339.4057859834   0.000000000000 0.06391415  0.00159337  0.1585265 0.7000
  1  -1339.5907847084  -0.184998724979 0.04270558  0.00116071  0.0939370 0.7000
                               ***Turning on DIIS***
  2  -1339.6803442918  -0.089559583387 0.09461804  0.00218090  0.0470743 0.0000
  3  -1339.8156711270  -0.135326835187 0.04332396  0.00099559  0.0370253 0.0000
  4  -1339.8448242349  -0.029153107983 0.00765014  0.00020382  0.0070193 0.0000
                      *** Initiating the SOSCF procedure ***
                           *** Shutting down DIIS ***
                      *** Re-Reading the Fockian *** 
                      *** Removing any level shift *** 
ITER      Energy       Delta-E        Grad      Rot      Max-DP    RMS-DP
  5  -1339.84575190  -0.0009276629  0.001265  0.001265  0.003520  0.000103
               *** Restarting incremental Fock matrix formation ***
  6  -1339.84594773  -0.0001958341  0.001257  0.003399  0.003280  0.000067
  7  -1339.84601800  -0.0000702709  0.000609  0.004015  0.004304  0.000070
  8  -1339.84603682  -0.0000188221  0.000348  0.000659  0.000894  0.000022
  9  -1339.84604243  -0.0000056061  0.000126  0.000448  0.000342  0.000009
 10  -1339.84604292  -0.0000004857  0.000078  0.000221  0.000173  0.000004
                 **** Energy Check signals convergence ****
              ***Rediagonalizing the Fockian in SOSCF/NRSCF***

               *****************************************************
               *                     SUCCESS                       *
               *           SCF CONVERGED AFTER  11 CYCLES          *
               *****************************************************

Setting up the final grid:

General Integration Accuracy     IntAcc      ...  4.670
Radial Grid Type                 RadialGrid  ... Gauss-Chebyshev
Angular Grid (max. acc.)         AngularGrid ... Lebedev-302
Angular grid pruning method      GridPruning ... 3 (G Style)
Weight generation scheme         WeightScheme... Becke
Basis function cutoff            BFCut       ...    1.0000e-10
Integration weight cutoff        WCut        ...    1.0000e-14
Grids for H and He will be reduced by one unit

# of grid points (after initial pruning)     ... 161752 (   0.0 sec)
# of grid points (after weights+screening)   ... 142694 (   0.1 sec)
nearest neighbour list constructed           ...    0.0 sec
Grid point re-assignment to atoms done       ...    0.0 sec
Grid point division into batches done        ...    0.5 sec
Reduced shell lists constructed in    0.5 sec

Total number of grid points                  ...   142694
Total number of batches                      ...     2250
Average number of points per batch           ...       63
Average number of grid points per atom       ...     4197
Average number of shells per batch           ...    65.89 (42.79%)
Average number of basis functions per batch  ...   129.16 (40.11%)
Average number of large shells per batch     ...    40.40 (61.31%)
Average number of large basis fcns per batch ...    82.46 (63.85%)
Maximum spatial batch extension              ...  12.92, 15.48, 15.16 au
Average spatial batch extension              ...   0.11,  0.11,  0.12 au

Final grid set up in    0.9 sec
Final integration                            ... done (   0.2 sec)
Change in XC energy                          ...     0.006851085
Integrated number of electrons               ...   133.999944859
Previous integrated no of electrons          ...   133.998355455

----------------
TOTAL SCF ENERGY
----------------

Total Energy       :        -1339.83919212 Eh          -36458.87795 eV

Components:
Nuclear Repulsion  :         1278.13132119 Eh           34779.72142 eV
Electronic Energy  :        -2617.97051331 Eh          -71238.59937 eV
One Electron Energy:        -4372.99352582 Eh         -118995.20344 eV
Two Electron Energy:         1755.02301251 Eh           47756.60407 eV

Virial components:
Potential Energy   :        -2671.45293443 Eh          -72693.93003 eV
Kinetic Energy     :         1331.61374231 Eh           36235.05208 eV
Virial Ratio       :            2.00617705


DFT components:
N(Alpha)           :       66.999972429489 electrons
N(Beta)            :       66.999972429489 electrons
N(Total)           :      133.999944858978 electrons
E(XC)              :      -94.260065816678 Eh       
DFET-embed. en.    :        0.000000000000 Eh       

---------------
SCF CONVERGENCE
---------------

  Last Energy change         ...   -2.8662e-07  Tolerance :   1.0000e-06
  Last MAX-Density change    ...    2.9686e-05  Tolerance :   1.0000e-05
  Last RMS-Density change    ...    6.8807e-07  Tolerance :   1.0000e-06
  Last Orbital Gradient      ...    7.9294e-06  Tolerance :   5.0000e-05
  Last Orbital Rotation      ...    2.0409e-05  Tolerance :   5.0000e-05

             **** THE GBW FILE WAS UPDATED (config_1715.gbw) ****
             **** DENSITY FILE WAS UPDATED (config_1715.scfp) ****
             **** ENERGY FILE WAS UPDATED (config_1715.en.tmp) ****
             **** THE GBW FILE WAS UPDATED (config_1715.gbw) ****
             **** DENSITY FILE WAS UPDATED (config_1715.scfp) ****
----------------
ORBITAL ENERGIES
----------------

  NO   OCC          E(Eh)            E(eV) 
   0   2.0000     -88.961186     -2420.7569 
   1   2.0000     -88.957993     -2420.6700 
   2   2.0000     -10.324678      -280.9488 
   3   2.0000     -10.322552      -280.8909 
   4   2.0000     -10.320931      -280.8468 
   5   2.0000     -10.309523      -280.5364 
   6   2.0000     -10.303768      -280.3798 
   7   2.0000     -10.299838      -280.2728 
   8   2.0000     -10.296853      -280.1916 
   9   2.0000     -10.296114      -280.1715 
  10   2.0000     -10.292829      -280.0821 
  11   2.0000     -10.291042      -280.0335 
  12   2.0000     -10.288492      -279.9641 
  13   2.0000     -10.286197      -279.9016 
  14   2.0000     -10.284217      -279.8478 
  15   2.0000     -10.280529      -279.7474 
  16   2.0000      -8.077199      -219.7918 
  17   2.0000      -8.072222      -219.6563 
  18   2.0000      -6.035612      -164.2373 
  19   2.0000      -6.031621      -164.1288 
  20   2.0000      -6.030789      -164.1061 
  21   2.0000      -6.027886      -164.0271 
  22   2.0000      -6.026966      -164.0021 
  23   2.0000      -6.022785      -163.8883 
  24   2.0000      -1.009262       -27.4634 
  25   2.0000      -0.985642       -26.8207 
  26   2.0000      -0.908817       -24.7302 
  27   2.0000      -0.906531       -24.6680 
  28   2.0000      -0.870619       -23.6908 
  29   2.0000      -0.849327       -23.1114 
  30   2.0000      -0.845876       -23.0174 
  31   2.0000      -0.814422       -22.1616 
  32   2.0000      -0.778332       -21.1795 
  33   2.0000      -0.770825       -20.9752 
  34   2.0000      -0.705632       -19.2012 
  35   2.0000      -0.699783       -19.0421 
  36   2.0000      -0.694191       -18.8899 
  37   2.0000      -0.659024       -17.9330 
  38   2.0000      -0.653022       -17.7696 
  39   2.0000      -0.610875       -16.6228 
  40   2.0000      -0.601073       -16.3560 
  41   2.0000      -0.570536       -15.5251 
  42   2.0000      -0.569252       -15.4901 
  43   2.0000      -0.551839       -15.0163 
  44   2.0000      -0.544647       -14.8206 
  45   2.0000      -0.537056       -14.6140 
  46   2.0000      -0.517702       -14.0874 
  47   2.0000      -0.506358       -13.7787 
  48   2.0000      -0.502862       -13.6836 
  49   2.0000      -0.497761       -13.5448 
  50   2.0000      -0.485746       -13.2178 
  51   2.0000      -0.483937       -13.1686 
  52   2.0000      -0.468174       -12.7397 
  53   2.0000      -0.463935       -12.6243 
  54   2.0000      -0.460812       -12.5393 
  55   2.0000      -0.445897       -12.1335 
  56   2.0000      -0.442155       -12.0316 
  57   2.0000      -0.431428       -11.7397 
  58   2.0000      -0.430475       -11.7138 
  59   2.0000      -0.427952       -11.6452 
  60   2.0000      -0.426100       -11.5948 
  61   2.0000      -0.404770       -11.0143 
  62   2.0000      -0.403862       -10.9896 
  63   2.0000      -0.338558        -9.2126 
  64   2.0000      -0.330930        -9.0050 
  65   2.0000      -0.327959        -8.9242 
  66   2.0000      -0.299867        -8.1598 
  67   0.0000       0.041748         1.1360 
  68   0.0000       0.047262         1.2861 
  69   0.0000       0.111964         3.0467 
  70   0.0000       0.117574         3.1994 
  71   0.0000       0.128914         3.5079 
  72   0.0000       0.138915         3.7801 
  73   0.0000       0.152407         4.1472 
  74   0.0000       0.158857         4.3227 
  75   0.0000       0.165889         4.5141 
  76   0.0000       0.169387         4.6092 
  77   0.0000       0.185341         5.0434 
  78   0.0000       0.187353         5.0981 
  79   0.0000       0.190144         5.1741 
  80   0.0000       0.195103         5.3090 
  81   0.0000       0.201361         5.4793 
  82   0.0000       0.206281         5.6132 
  83   0.0000       0.213772         5.8170 
  84   0.0000       0.218993         5.9591 
  85   0.0000       0.228379         6.2145 
  86   0.0000       0.234997         6.3946 
  87   0.0000       0.237576         6.4648 
  88   0.0000       0.243342         6.6217 
  89   0.0000       0.248288         6.7563 
  90   0.0000       0.270552         7.3621 
  91   0.0000       0.275490         7.4965 
  92   0.0000       0.284858         7.7514 
  93   0.0000       0.295052         8.0288 
  94   0.0000       0.296940         8.0802 
  95   0.0000       0.312824         8.5124 
  96   0.0000       0.319465         8.6931 
  97   0.0000       0.324537         8.8311 
  98   0.0000       0.358230         9.7479 
  99   0.0000       0.381092        10.3700 
 100   0.0000       0.391263        10.6468 
 101   0.0000       0.408979        11.1289 
 102   0.0000       0.415194        11.2980 
 103   0.0000       0.425658        11.5827 
 104   0.0000       0.436156        11.8684 
 105   0.0000       0.456333        12.4175 
 106   0.0000       0.463613        12.6156 
 107   0.0000       0.477682        12.9984 
 108   0.0000       0.488568        13.2946 
 109   0.0000       0.496192        13.5021 
 110   0.0000       0.501270        13.6403 
 111   0.0000       0.507979        13.8228 
 112   0.0000       0.519575        14.1383 
 113   0.0000       0.524561        14.2740 
 114   0.0000       0.531427        14.4609 
 115   0.0000       0.535460        14.5706 
 116   0.0000       0.538916        14.6647 
 117   0.0000       0.552350        15.0302 
 118   0.0000       0.562510        15.3067 
 119   0.0000       0.573103        15.5949 
 120   0.0000       0.581533        15.8243 
 121   0.0000       0.588669        16.0185 
 122   0.0000       0.596518        16.2321 
 123   0.0000       0.608297        16.5526 
 124   0.0000       0.624065        16.9817 
 125   0.0000       0.626258        17.0413 
 126   0.0000       0.638463        17.3735 
 127   0.0000       0.646723        17.5982 
 128   0.0000       0.652892        17.7661 
 129   0.0000       0.659193        17.9375 
 130   0.0000       0.665852        18.1188 
 131   0.0000       0.677397        18.4329 
 132   0.0000       0.683243        18.5920 
 133   0.0000       0.700789        19.0694 
 134   0.0000       0.701159        19.0795 
 135   0.0000       0.716122        19.4867 
 136   0.0000       0.720352        19.6018 
 137   0.0000       0.730404        19.8753 
 138   0.0000       0.733638        19.9633 
 139   0.0000       0.740780        20.1577 
 140   0.0000       0.742448        20.2030 
 141   0.0000       0.748424        20.3656 
 142   0.0000       0.750771        20.4295 
 143   0.0000       0.758742        20.6464 
 144   0.0000       0.759247        20.6602 
 145   0.0000       0.763483        20.7754 
 146   0.0000       0.767554        20.8862 
 147   0.0000       0.772532        21.0217 
 148   0.0000       0.776061        21.1177 
 149   0.0000       0.781039        21.2532 
 150   0.0000       0.785094        21.3635 
 151   0.0000       0.786993        21.4152 
 152   0.0000       0.793370        21.5887 
 153   0.0000       0.795169        21.6377 
 154   0.0000       0.801393        21.8070 
 155   0.0000       0.806644        21.9499 
 156   0.0000       0.809769        22.0349 
 157   0.0000       0.814656        22.1679 
 158   0.0000       0.819246        22.2928 
 159   0.0000       0.822551        22.3828 
 160   0.0000       0.825895        22.4738 
 161   0.0000       0.831412        22.6239 
 162   0.0000       0.839555        22.8455 
 163   0.0000       0.848514        23.0892 
 164   0.0000       0.852789        23.2056 
 165   0.0000       0.859449        23.3868 
 166   0.0000       0.868562        23.6348 
 167   0.0000       0.877425        23.8760 
 168   0.0000       0.884504        24.0686 
 169   0.0000       0.894698        24.3460 
 170   0.0000       0.899758        24.4837 
 171   0.0000       0.910847        24.7854 
 172   0.0000       0.922682        25.1075 
 173   0.0000       0.938806        25.5462 
 174   0.0000       0.954318        25.9683 
 175   0.0000       0.969158        26.3721 
 176   0.0000       0.975497        26.5446 
 177   0.0000       0.983946        26.7745 
 178   0.0000       1.018246        27.7079 
 179   0.0000       1.029414        28.0118 
 180   0.0000       1.058211        28.7954 
 181   0.0000       1.065849        29.0032 
 182   0.0000       1.079870        29.3848 
 183   0.0000       1.091339        29.6969 
 184   0.0000       1.110426        30.2162 
 185   0.0000       1.123741        30.5785 
 186   0.0000       1.136827        30.9346 
 187   0.0000       1.155671        31.4474 
 188   0.0000       1.176643        32.0181 
 189   0.0000       1.193734        32.4832 
 190   0.0000       1.200518        32.6678 
 191   0.0000       1.221214        33.2309 
 192   0.0000       1.252717        34.0882 
 193   0.0000       1.262356        34.3504 
 194   0.0000       1.278697        34.7951 
 195   0.0000       1.301161        35.4064 
 196   0.0000       1.328431        36.1484 
 197   0.0000       1.344566        36.5875 
 198   0.0000       1.365382        37.1539 
 199   0.0000       1.372441        37.3460 
 200   0.0000       1.393245        37.9121 
 201   0.0000       1.416559        38.5465 
 202   0.0000       1.422668        38.7128 
 203   0.0000       1.441959        39.2377 
 204   0.0000       1.477088        40.1936 
 205   0.0000       1.501350        40.8538 
 206   0.0000       1.505337        40.9623 
 207   0.0000       1.536072        41.7986 
 208   0.0000       1.543223        41.9932 
 209   0.0000       1.571617        42.7659 
 210   0.0000       1.585637        43.1474 
 211   0.0000       1.595875        43.4260 
 212   0.0000       1.600837        43.5610 
 213   0.0000       1.621283        44.1174 
 214   0.0000       1.632292        44.4169 
 215   0.0000       1.646501        44.8036 
 216   0.0000       1.659357        45.1534 
 217   0.0000       1.672660        45.5154 
 218   0.0000       1.739383        47.3310 
 219   0.0000       1.758503        47.8513 
 220   0.0000       1.768120        48.1130 
 221   0.0000       1.785945        48.5980 
 222   0.0000       1.794331        48.8262 
 223   0.0000       1.809148        49.2294 
 224   0.0000       1.817915        49.4680 
 225   0.0000       1.830928        49.8221 
 226   0.0000       1.833897        49.9029 
 227   0.0000       1.842750        50.1438 
 228   0.0000       1.849336        50.3230 
 229   0.0000       1.859437        50.5979 
 230   0.0000       1.868683        50.8495 
 231   0.0000       1.884595        51.2824 
 232   0.0000       1.887129        51.3514 
 233   0.0000       1.898135        51.6509 
 234   0.0000       1.906894        51.8892 
 235   0.0000       1.913051        52.0568 
 236   0.0000       1.919821        52.2410 
 237   0.0000       1.927111        52.4394 
 238   0.0000       1.928430        52.4752 
 239   0.0000       1.936460        52.6938 
 240   0.0000       1.955297        53.2063 
 241   0.0000       1.958140        53.2837 
 242   0.0000       1.961786        53.3829 
 243   0.0000       1.971889        53.6578 
 244   0.0000       1.988888        54.1204 
 245   0.0000       1.993223        54.2384 
 246   0.0000       2.003856        54.5277 
 247   0.0000       2.020649        54.9847 
 248   0.0000       2.028036        55.1857 
 249   0.0000       2.041869        55.5621 
 250   0.0000       2.050320        55.7920 
 251   0.0000       2.052962        55.8639 
 252   0.0000       2.073643        56.4267 
 253   0.0000       2.076216        56.4967 
 254   0.0000       2.088349        56.8269 
 255   0.0000       2.100884        57.1679 
 256   0.0000       2.108072        57.3636 
 257   0.0000       2.133744        58.0621 
 258   0.0000       2.138875        58.2018 
 259   0.0000       2.173481        59.1434 
 260   0.0000       2.183216        59.4083 
 261   0.0000       2.203346        59.9561 
 262   0.0000       2.208018        60.0832 
 263   0.0000       2.223247        60.4976 
 264   0.0000       2.241087        60.9831 
 265   0.0000       2.255601        61.3780 
 266   0.0000       2.260274        61.5052 
 267   0.0000       2.277212        61.9661 
 268   0.0000       2.285828        62.2005 
 269   0.0000       2.293817        62.4179 
 270   0.0000       2.309971        62.8575 
 271   0.0000       2.335157        63.5429 
 272   0.0000       2.339217        63.6533 
 273   0.0000       2.388068        64.9826 
 274   0.0000       2.392537        65.1042 
 275   0.0000       2.409550        65.5672 
 276   0.0000       2.432525        66.1924 
 277   0.0000       2.453708        66.7688 
 278   0.0000       2.471001        67.2394 
 279   0.0000       2.477853        67.4258 
 280   0.0000       2.484635        67.6104 
 281   0.0000       2.501962        68.0818 
 282   0.0000       2.512753        68.3755 
 283   0.0000       2.525152        68.7129 
 284   0.0000       2.525934        68.7342 
 285   0.0000       2.578522        70.1651 
 286   0.0000       2.587250        70.4026 
 287   0.0000       2.587952        70.4218 
 288   0.0000       2.595976        70.6401 
 289   0.0000       2.622519        71.3624 
 290   0.0000       2.631182        71.5981 
 291   0.0000       2.662278        72.4443 
 292   0.0000       2.682038        72.9820 
 293   0.0000       2.708291        73.6964 
 294   0.0000       2.717957        73.9594 
 295   0.0000       2.734851        74.4191 
 296   0.0000       2.743998        74.6680 
 297   0.0000       2.762498        75.1714 
 298   0.0000       2.827983        76.9533 
 299   0.0000       2.834014        77.1174 
 300   0.0000       2.865757        77.9812 
 301   0.0000       2.873588        78.1943 
 302   0.0000       2.901570        78.9557 
 303   0.0000       2.942607        80.0724 
 304   0.0000       2.952043        80.3292 
 305   0.0000       2.954805        80.4043 
 306   0.0000       2.971409        80.8562 
 307   0.0000       2.985814        81.2481 
 308   0.0000       3.009822        81.9014 
 309   0.0000       3.021213        82.2114 
 310   0.0000       3.041143        82.7537 
 311   0.0000       3.071265        83.5734 
 312   0.0000       3.087489        84.0148 
 313   0.0000       3.105362        84.5012 
 314   0.0000       3.117179        84.8227 
 315   0.0000       3.165783        86.1453 
 316   0.0000       3.186205        86.7011 
 317   0.0000       3.217095        87.5416 
 318   0.0000       3.233296        87.9825 
 319   0.0000       3.248836        88.4053 
 320   0.0000       3.409724        92.7833 
 321   0.0000       3.472987        94.5048 

                    ********************************
                    * MULLIKEN POPULATION ANALYSIS *
                    ********************************

-----------------------
MULLIKEN ATOMIC CHARGES
-----------------------
   0 S :    0.108649
   1 C :   -0.101625
   2 C :   -0.068190
   3 C :    0.043916
   4 C :   -0.183768
   5 H :    0.010588
   6 C :    0.034014
   7 H :    0.025053
   8 H :    0.031306
   9 C :   -0.059866
  10 H :    0.026342
  11 H :    0.043784
  12 C :   -0.089759
  13 H :    0.045934
  14 H :    0.028167
  15 H :    0.047403
  16 S :    0.073731
  17 C :   -0.087213
  18 C :   -0.022103
  19 C :   -0.010042
  20 C :   -0.173659
  21 H :    0.013507
  22 C :    0.060429
  23 H :    0.045935
  24 H :    0.026368
  25 C :   -0.087075
  26 H :    0.019097
  27 H :    0.026041
  28 C :   -0.049603
  29 H :    0.037914
  30 H :    0.048026
  31 H :    0.051885
  32 H :    0.025073
  33 H :    0.059742
Sum of atomic charges:   -0.0000000

--------------------------------
MULLIKEN REDUCED ORBITAL CHARGES
--------------------------------
  0 S s       :     5.842280  s :     5.842280
      pz      :     3.624019  p :     9.939667
      px      :     3.317397
      py      :     2.998251
      dz2     :     0.014229  d :     0.109403
      dxz     :     0.013360
      dyz     :     0.019775
      dx2y2   :     0.016727
      dxy     :     0.045313
  1 C s       :     3.174337  s :     3.174337
      pz      :     1.094122  p :     2.890877
      px      :     0.938145
      py      :     0.858610
      dz2     :     0.003083  d :     0.036411
      dxz     :     0.008077
      dyz     :     0.003191
      dx2y2   :     0.008878
      dxy     :     0.013182
  2 C s       :     3.070992  s :     3.070992
      pz      :     1.018598  p :     2.953596
      px      :     0.948256
      py      :     0.986743
      dz2     :     0.003573  d :     0.043601
      dxz     :     0.007755
      dyz     :     0.006209
      dx2y2   :     0.014851
      dxy     :     0.011212
  3 C s       :     3.188368  s :     3.188368
      pz      :     0.985144  p :     2.731175
      px      :     0.866927
      py      :     0.879104
      dz2     :     0.003975  d :     0.036540
      dxz     :     0.005323
      dyz     :     0.005375
      dx2y2   :     0.009744
      dxy     :     0.012123
  4 C s       :     3.089288  s :     3.089288
      pz      :     1.088889  p :     3.048377
      px      :     0.948401
      py      :     1.011087
      dz2     :     0.004751  d :     0.046103
      dxz     :     0.010439
      dyz     :     0.005780
      dx2y2   :     0.009783
      dxy     :     0.015350
  5 H s       :     0.964918  s :     0.964918
      pz      :     0.005179  p :     0.024494
      px      :     0.012007
      py      :     0.007308
  6 C s       :     2.999572  s :     2.999572
      pz      :     0.995434  p :     2.932205
      px      :     0.926352
      py      :     1.010418
      dz2     :     0.005385  d :     0.034209
      dxz     :     0.007725
      dyz     :     0.008971
      dx2y2   :     0.004255
      dxy     :     0.007873
  7 H s       :     0.951991  s :     0.951991
      pz      :     0.006555  p :     0.022955
      px      :     0.009235
      py      :     0.007165
  8 H s       :     0.945187  s :     0.945187
      pz      :     0.008318  p :     0.023508
      px      :     0.004933
      py      :     0.010257
  9 C s       :     3.057328  s :     3.057328
      pz      :     0.957088  p :     2.966087
      px      :     1.004841
      py      :     1.004159
      dz2     :     0.006928  d :     0.036451
      dxz     :     0.006665
      dyz     :     0.009664
      dx2y2   :     0.005182
      dxy     :     0.008012
 10 H s       :     0.950221  s :     0.950221
      pz      :     0.006561  p :     0.023437
      px      :     0.008139
      py      :     0.008737
 11 H s       :     0.935437  s :     0.935437
      pz      :     0.003176  p :     0.020779
      px      :     0.011952
      py      :     0.005651
 12 C s       :     3.055009  s :     3.055009
      pz      :     1.022328  p :     3.006890
      px      :     1.010170
      py      :     0.974392
      dz2     :     0.002368  d :     0.027860
      dxz     :     0.007115
      dyz     :     0.007328
      dx2y2   :     0.008777
      dxy     :     0.002272
 13 H s       :     0.931622  s :     0.931622
      pz      :     0.008283  p :     0.022444
      px      :     0.010036
      py      :     0.004125
 14 H s       :     0.949343  s :     0.949343
      pz      :     0.006567  p :     0.022490
      px      :     0.004982
      py      :     0.010941
 15 H s       :     0.930668  s :     0.930668
      pz      :     0.006131  p :     0.021930
      px      :     0.011357
      py      :     0.004441
 16 S s       :     5.853765  s :     5.853765
      pz      :     3.391543  p :     9.978041
      px      :     3.606346
      py      :     2.980152
      dz2     :     0.012527  d :     0.094463
      dxz     :     0.011731
      dyz     :     0.036156
      dx2y2   :     0.010915
      dxy     :     0.023134
 17 C s       :     3.171396  s :     3.171396
      pz      :     0.919113  p :     2.881744
      px      :     1.052026
      py      :     0.910605
      dz2     :     0.008131  d :     0.034073
      dxz     :     0.006021
      dyz     :     0.011093
      dx2y2   :     0.005076
      dxy     :     0.003753
 18 C s       :     3.179063  s :     3.179063
      pz      :     0.853825  p :     2.808098
      px      :     1.015898
      py      :     0.938375
      dz2     :     0.008241  d :     0.034942
      dxz     :     0.004252
      dyz     :     0.010491
      dx2y2   :     0.005351
      dxy     :     0.006607
 19 C s       :     3.025332  s :     3.025332
      pz      :     0.998058  p :     2.939310
      px      :     0.984037
      py      :     0.957215
      dz2     :     0.012136  d :     0.045401
      dxz     :     0.007835
      dyz     :     0.011050
      dx2y2   :     0.007058
      dxy     :     0.007322
 20 C s       :     3.087722  s :     3.087722
      pz      :     1.027023  p :     3.042051
      px      :     1.078853
      py      :     0.936175
      dz2     :     0.010208  d :     0.043885
      dxz     :     0.007395
      dyz     :     0.015031
      dx2y2   :     0.005619
      dxy     :     0.005633
 21 H s       :     0.962218  s :     0.962218
      pz      :     0.012872  p :     0.024276
      px      :     0.005952
      py      :     0.005451
 22 C s       :     2.957627  s :     2.957627
      pz      :     0.931568  p :     2.947420
      px      :     1.022904
      py      :     0.992947
      dz2     :     0.008838  d :     0.034524
      dxz     :     0.005721
      dyz     :     0.008258
      dx2y2   :     0.008538
      dxy     :     0.003170
 23 H s       :     0.931814  s :     0.931814
      pz      :     0.003887  p :     0.022251
      px      :     0.005769
      py      :     0.012594
 24 H s       :     0.949941  s :     0.949941
      pz      :     0.004914  p :     0.023691
      px      :     0.013844
      py      :     0.004933
 25 C s       :     3.049300  s :     3.049300
      pz      :     0.960626  p :     3.000735
      px      :     1.039598
      py      :     1.000511
      dz2     :     0.010761  d :     0.037040
      dxz     :     0.006304
      dyz     :     0.005619
      dx2y2   :     0.011042
      dxy     :     0.003314
 26 H s       :     0.957372  s :     0.957372
      pz      :     0.004367  p :     0.023531
      px      :     0.005530
      py      :     0.013635
 27 H s       :     0.950104  s :     0.950104
      pz      :     0.004840  p :     0.023855
      px      :     0.013830
      py      :     0.005185
 28 C s       :     3.046347  s :     3.046347
      pz      :     1.016225  p :     2.976696
      px      :     0.987762
      py      :     0.972709
      dz2     :     0.005403  d :     0.026560
      dxz     :     0.003708
      dyz     :     0.005274
      dx2y2   :     0.006703
      dxy     :     0.005473
 29 H s       :     0.938785  s :     0.938785
      pz      :     0.005881  p :     0.023301
      px      :     0.012991
      py      :     0.004429
 30 H s       :     0.927759  s :     0.927759
      pz      :     0.012379  p :     0.024215
      px      :     0.004811
      py      :     0.007024
 31 H s       :     0.925475  s :     0.925475
      pz      :     0.004422  p :     0.022640
      px      :     0.006605
      py      :     0.011613
 32 H s       :     0.949357  s :     0.949357
      pz      :     0.006131  p :     0.025570
      px      :     0.004814
      py      :     0.014625
 33 H s       :     0.915152  s :     0.915152
      pz      :     0.003986  p :     0.025106
      px      :     0.005616
      py      :     0.015503


                     *******************************
                     * LOEWDIN POPULATION ANALYSIS *
                     *******************************

----------------------
LOEWDIN ATOMIC CHARGES
----------------------
   0 S :    0.408137
   1 C :   -0.183850
   2 C :   -0.068165
   3 C :   -0.057069
   4 C :   -0.189015
   5 H :    0.029943
   6 C :   -0.031986
   7 H :    0.032209
   8 H :    0.029155
   9 C :   -0.049835
  10 H :    0.020106
  11 H :    0.030349
  12 C :   -0.077253
  13 H :    0.028328
  14 H :    0.025909
  15 H :    0.036904
  16 S :    0.352864
  17 C :   -0.156265
  18 C :   -0.072296
  19 C :   -0.055331
  20 C :   -0.185651
  21 H :    0.027255
  22 C :   -0.030912
  23 H :    0.035008
  24 H :    0.033106
  25 C :   -0.038998
  26 H :    0.014656
  27 H :    0.020157
  28 C :   -0.059208
  29 H :    0.023319
  30 H :    0.035843
  31 H :    0.033526
  32 H :    0.015363
  33 H :    0.023694

-------------------------------
LOEWDIN REDUCED ORBITAL CHARGES
-------------------------------
  0 S s       :     5.496497  s :     5.496497
      pz      :     3.581433  p :     9.959469
      px      :     3.364774
      py      :     3.013261
      dz2     :     0.017710  d :     0.135897
      dxz     :     0.014339
      dyz     :     0.024767
      dx2y2   :     0.019545
      dxy     :     0.059536
  1 C s       :     2.909087  s :     2.909087
      pz      :     1.091073  p :     3.185763
      px      :     1.060572
      py      :     1.034118
      dz2     :     0.006421  d :     0.089000
      dxz     :     0.016585
      dyz     :     0.005523
      dx2y2   :     0.025126
      dxy     :     0.035346
  2 C s       :     2.863976  s :     2.863976
      pz      :     0.996467  p :     3.097155
      px      :     1.061372
      py      :     1.039316
      dz2     :     0.007687  d :     0.107033
      dxz     :     0.014905
      dyz     :     0.013139
      dx2y2   :     0.041176
      dxy     :     0.030126
  3 C s       :     2.859300  s :     2.859300
      pz      :     1.002258  p :     3.101201
      px      :     1.065325
      py      :     1.033618
      dz2     :     0.009249  d :     0.096567
      dxz     :     0.011687
      dyz     :     0.011849
      dx2y2   :     0.030501
      dxy     :     0.033282
  4 C s       :     2.904697  s :     2.904697
      pz      :     1.066004  p :     3.174792
      px      :     1.061851
      py      :     1.046936
      dz2     :     0.010055  d :     0.109527
      dxz     :     0.022633
      dyz     :     0.013095
      dx2y2   :     0.025631
      dxy     :     0.038113
  5 H s       :     0.897706  s :     0.897706
      pz      :     0.016032  p :     0.072351
      px      :     0.033858
      py      :     0.022461
  6 C s       :     2.837223  s :     2.837223
      pz      :     1.036586  p :     3.109985
      px      :     1.011414
      py      :     1.061985
      dz2     :     0.013918  d :     0.084778
      dxz     :     0.018332
      dyz     :     0.021267
      dx2y2   :     0.010298
      dxy     :     0.020963
  7 H s       :     0.901703  s :     0.901703
      pz      :     0.019541  p :     0.066088
      px      :     0.026581
      py      :     0.019966
  8 H s       :     0.901402  s :     0.901402
      pz      :     0.026187  p :     0.069443
      px      :     0.013919
      py      :     0.029336
  9 C s       :     2.840884  s :     2.840884
      pz      :     1.019259  p :     3.120838
      px      :     1.053057
      py      :     1.048522
      dz2     :     0.016812  d :     0.088114
      dxz     :     0.015292
      dyz     :     0.023937
      dx2y2   :     0.012662
      dxy     :     0.019411
 10 H s       :     0.911256  s :     0.911256
      pz      :     0.020819  p :     0.068638
      px      :     0.022746
      py      :     0.025074
 11 H s       :     0.908874  s :     0.908874
      pz      :     0.010869  p :     0.060777
      px      :     0.033284
      py      :     0.016624
 12 C s       :     2.852337  s :     2.852337
      pz      :     1.056564  p :     3.154308
      px      :     1.061294
      py      :     1.036451
      dz2     :     0.004612  d :     0.070608
      dxz     :     0.018748
      dyz     :     0.020294
      dx2y2   :     0.022996
      dxy     :     0.003957
 13 H s       :     0.908257  s :     0.908257
      pz      :     0.023508  p :     0.063415
      px      :     0.028127
      py      :     0.011780
 14 H s       :     0.912131  s :     0.912131
      pz      :     0.018604  p :     0.061960
      px      :     0.011943
      py      :     0.031413
 15 H s       :     0.902570  s :     0.902570
      pz      :     0.016876  p :     0.060527
      px      :     0.032155
      py      :     0.011496
 16 S s       :     5.544756  s :     5.544756
      pz      :     3.407891  p :     9.988033
      px      :     3.584643
      py      :     2.995499
      dz2     :     0.013479  d :     0.114348
      dxz     :     0.012092
      dyz     :     0.046095
      dx2y2   :     0.013766
      dxy     :     0.028916
 17 C s       :     2.931442  s :     2.931442
      pz      :     1.037097  p :     3.144661
      px      :     1.059518
      py      :     1.048046
      dz2     :     0.019934  d :     0.080162
      dxz     :     0.012978
      dyz     :     0.028945
      dx2y2   :     0.010860
      dxy     :     0.007446
 18 C s       :     2.863018  s :     2.863018
      pz      :     1.052893  p :     3.117063
      px      :     1.023831
      py      :     1.040340
      dz2     :     0.023349  d :     0.092214
      dxz     :     0.009415
      dyz     :     0.030226
      dx2y2   :     0.013940
      dxy     :     0.015284
 19 C s       :     2.852756  s :     2.852756
      pz      :     1.062234  p :     3.089029
      px      :     0.978189
      py      :     1.048606
      dz2     :     0.032952  d :     0.113546
      dxz     :     0.017426
      dyz     :     0.031323
      dx2y2   :     0.016709
      dxy     :     0.015136
 20 C s       :     2.903081  s :     2.903081
      pz      :     1.082185  p :     3.176309
      px      :     1.077897
      py      :     1.016228
      dz2     :     0.025705  d :     0.106261
      dxz     :     0.016647
      dyz     :     0.038481
      dx2y2   :     0.013084
      dxy     :     0.012344
 21 H s       :     0.901392  s :     0.901392
      pz      :     0.036047  p :     0.071352
      px      :     0.018400
      py      :     0.016905
 22 C s       :     2.836094  s :     2.836094
      pz      :     1.009847  p :     3.109479
      px      :     1.063323
      py      :     1.036309
      dz2     :     0.024051  d :     0.085338
      dxz     :     0.011765
      dyz     :     0.020082
      dx2y2   :     0.021032
      dxy     :     0.008408
 23 H s       :     0.899536  s :     0.899536
      pz      :     0.013279  p :     0.065456
      px      :     0.016020
      py      :     0.036157
 24 H s       :     0.897893  s :     0.897893
      pz      :     0.015314  p :     0.069001
      px      :     0.039807
      py      :     0.013879
 25 C s       :     2.828680  s :     2.828680
      pz      :     1.008720  p :     3.122206
      px      :     1.065533
      py      :     1.047954
      dz2     :     0.026854  d :     0.088111
      dxz     :     0.013505
      dyz     :     0.013153
      dx2y2   :     0.025931
      dxy     :     0.008668
 26 H s       :     0.914412  s :     0.914412
      pz      :     0.015541  p :     0.070932
      px      :     0.016082
      py      :     0.039309
 27 H s       :     0.906780  s :     0.906780
      pz      :     0.017489  p :     0.073063
      px      :     0.040165
      py      :     0.015409
 28 C s       :     2.849067  s :     2.849067
      pz      :     1.061083  p :     3.143636
      px      :     1.047602
      py      :     1.034950
      dz2     :     0.013441  d :     0.066505
      dxz     :     0.009448
      dyz     :     0.013433
      dx2y2   :     0.016127
      dxy     :     0.014057
 29 H s       :     0.909721  s :     0.909721
      pz      :     0.017134  p :     0.066960
      px      :     0.037685
      py      :     0.012140
 30 H s       :     0.896050  s :     0.896050
      pz      :     0.035424  p :     0.068108
      px      :     0.012498
      py      :     0.020185
 31 H s       :     0.902138  s :     0.902138
      pz      :     0.012620  p :     0.064336
      px      :     0.018074
      py      :     0.033641
 32 H s       :     0.902712  s :     0.902712
      pz      :     0.020911  p :     0.081925
      px      :     0.016232
      py      :     0.044782
 33 H s       :     0.896349  s :     0.896349
      pz      :     0.014168  p :     0.079957
      px      :     0.018619
      py      :     0.047169


                      *****************************
                      * MAYER POPULATION ANALYSIS *
                      *****************************

  NA   - Mulliken gross atomic population
  ZA   - Total nuclear charge
  QA   - Mulliken gross atomic charge
  VA   - Mayer's total valence
  BVA  - Mayer's bonded valence
  FA   - Mayer's free valence

  ATOM       NA         ZA         QA         VA         BVA        FA
  0 S     15.8914    16.0000     0.1086     2.4738     2.4738    -0.0000
  1 C      6.1016     6.0000    -0.1016     3.8567     3.8567    -0.0000
  2 C      6.0682     6.0000    -0.0682     3.9476     3.9476     0.0000
  3 C      5.9561     6.0000     0.0439     3.9283     3.9283    -0.0000
  4 C      6.1838     6.0000    -0.1838     3.9261     3.9261    -0.0000
  5 H      0.9894     1.0000     0.0106     1.0046     1.0046    -0.0000
  6 C      5.9660     6.0000     0.0340     3.9677     3.9677    -0.0000
  7 H      0.9749     1.0000     0.0251     0.9844     0.9844    -0.0000
  8 H      0.9687     1.0000     0.0313     0.9891     0.9891    -0.0000
  9 C      6.0599     6.0000    -0.0599     4.0594     4.0594    -0.0000
 10 H      0.9737     1.0000     0.0263     0.9743     0.9743    -0.0000
 11 H      0.9562     1.0000     0.0438     0.9781     0.9781    -0.0000
 12 C      6.0898     6.0000    -0.0898     3.9795     3.9795    -0.0000
 13 H      0.9541     1.0000     0.0459     0.9839     0.9839    -0.0000
 14 H      0.9718     1.0000     0.0282     1.0009     1.0009     0.0000
 15 H      0.9526     1.0000     0.0474     0.9852     0.9852    -0.0000
 16 S     15.9263    16.0000     0.0737     2.4336     2.4336     0.0000
 17 C      6.0872     6.0000    -0.0872     3.8273     3.8273     0.0000
 18 C      6.0221     6.0000    -0.0221     3.9198     3.9198     0.0000
 19 C      6.0100     6.0000    -0.0100     4.0368     4.0368    -0.0000
 20 C      6.1737     6.0000    -0.1737     3.9073     3.9073    -0.0000
 21 H      0.9865     1.0000     0.0135     0.9983     0.9983     0.0000
 22 C      5.9396     6.0000     0.0604     3.9486     3.9486    -0.0000
 23 H      0.9541     1.0000     0.0459     0.9858     0.9858     0.0000
 24 H      0.9736     1.0000     0.0264     0.9906     0.9906     0.0000
 25 C      6.0871     6.0000    -0.0871     4.0636     4.0636    -0.0000
 26 H      0.9809     1.0000     0.0191     0.9803     0.9803     0.0000
 27 H      0.9740     1.0000     0.0260     0.9753     0.9753    -0.0000
 28 C      6.0496     6.0000    -0.0496     3.9949     3.9949    -0.0000
 29 H      0.9621     1.0000     0.0379     0.9947     0.9947    -0.0000
 30 H      0.9520     1.0000     0.0480     0.9870     0.9870    -0.0000
 31 H      0.9481     1.0000     0.0519     0.9871     0.9871     0.0000
 32 H      0.9749     1.0000     0.0251     1.0083     1.0083    -0.0000
 33 H      0.9403     1.0000     0.0597     0.9979     0.9979    -0.0000

  Mayer bond orders larger than 0.100000
B(  0-S ,  1-C ) :   1.1544 B(  0-S ,  4-C ) :   1.1377 B(  1-C ,  2-C ) :   1.6217 
B(  1-C , 32-H ) :   0.9806 B(  2-C ,  3-C ) :   1.2010 B(  2-C ,  6-C ) :   1.0018 
B(  3-C ,  4-C ) :   1.6415 B(  3-C ,  5-H ) :   0.9967 B(  4-C , 20-C ) :   0.9886 
B(  6-C ,  7-H ) :   0.9501 B(  6-C ,  8-H ) :   0.9524 B(  6-C ,  9-C ) :   1.0566 
B(  9-C , 10-H ) :   0.9619 B(  9-C , 11-H ) :   0.9643 B(  9-C , 12-C ) :   1.0612 
B( 12-C , 13-H ) :   0.9746 B( 12-C , 14-H ) :   0.9800 B( 12-C , 15-H ) :   0.9682 
B( 16-S , 17-C ) :   1.1534 B( 16-S , 20-C ) :   1.1085 B( 17-C , 18-C ) :   1.5992 
B( 17-C , 33-H ) :   0.9761 B( 18-C , 19-C ) :   1.2251 B( 18-C , 21-H ) :   0.9881 
B( 19-C , 20-C ) :   1.6769 B( 19-C , 22-C ) :   1.0087 B( 22-C , 23-H ) :   0.9412 
B( 22-C , 24-H ) :   0.9290 B( 22-C , 25-C ) :   1.0685 B( 25-C , 26-H ) :   0.9551 
B( 25-C , 27-H ) :   0.9549 B( 25-C , 28-C ) :   1.0627 B( 28-C , 29-H ) :   0.9801 
B( 28-C , 30-H ) :   0.9766 B( 28-C , 31-H ) :   0.9767 

-------
TIMINGS
-------

Total SCF time: 0 days 0 hours 0 min 19 sec 

Total time                  ....      19.636 sec
Sum of individual times     ....      18.758 sec  ( 95.5%)

Fock matrix formation       ....      17.086 sec  ( 87.0%)
  XC integration            ....       1.497 sec  (  8.8% of F)
    Basis function eval.    ....       0.142 sec  (  9.5% of XC)
    Density eval.           ....       0.102 sec  (  6.8% of XC)
    XC-Functional eval.     ....       0.115 sec  (  7.7% of XC)
    XC-Potential eval.      ....       0.115 sec  (  7.7% of XC)
Diagonalization             ....       0.137 sec  (  0.7%)
Density matrix formation    ....       0.023 sec  (  0.1%)
Population analysis         ....       0.060 sec  (  0.3%)
Initial guess               ....       0.170 sec  (  0.9%)
Orbital Transformation      ....       0.000 sec  (  0.0%)
Orbital Orthonormalization  ....       0.000 sec  (  0.0%)
DIIS solution               ....       0.151 sec  (  0.8%)
SOSCF solution              ....       0.126 sec  (  0.6%)
Grid generation             ....       1.004 sec  (  5.1%)


-------------------------------------------------------------------------------
                          DFT DISPERSION CORRECTION                            
                                                                               
                              DFTD3 V3.1  Rev 1                                
                              USING zero damping                               
-------------------------------------------------------------------------------
The omegaB97X-D3 functional is recognized. Fit by Chai et al.
Active option DFTDOPT                   ...         3   

molecular C6(AA) [au] = 14163.588062 


            DFT-D V3
 parameters
 s6 scaling factor         :     1.0000 
 rs6 scaling factor        :     1.2810 
 s8 scaling factor         :     1.0000 
 rs8 scaling factor        :     1.0940 
 Damping factor alpha6     :    14.0000 
 Damping factor alpha8     :    16.0000 
 ad hoc parameters k1-k3   :    16.0000     1.3333    -4.0000 

 Edisp/kcal,au: -8.954041222316  -0.014269171442 
 E6   /kcal   :  -4.058943596 
 E8   /kcal   :  -4.895097626 
 % E8         :  54.669143294 

-------------------------   ----------------
Dispersion correction           -0.014269171
-------------------------   ----------------


-------------------------   --------------------
FINAL SINGLE POINT ENERGY     -1339.853461290179
-------------------------   --------------------


                            ***************************************
                            *     ORCA property calculations      *
                            ***************************************

                                    ---------------------
                                    Active property flags
                                    ---------------------
   (+) Dipole Moment


------------------------------------------------------------------------------
                       ORCA ELECTRIC PROPERTIES CALCULATION
------------------------------------------------------------------------------

Dipole Moment Calculation                       ... on
Quadrupole Moment Calculation                   ... off
Polarizability Calculation                      ... off
GBWName                                         ... config_1715.gbw
Electron density file                           ... config_1715.scfp
The origin for moment calculation is the CENTER OF MASS  = (-96.304481, 40.043920 47.251019)

-------------
DIPOLE MOMENT
-------------
                                X             Y             Z
Electronic contribution:     19.13986     -12.01306       9.12447
Nuclear contribution   :    -19.75523      12.20859      -9.61667
                        -----------------------------------------
Total Dipole Moment    :     -0.61537       0.19553      -0.49220
                        -----------------------------------------
Magnitude (a.u.)       :      0.81190
Magnitude (Debye)      :      2.06367



--------------------
Rotational spectrum 
--------------------
 
Rotational constants in cm-1:     0.017525     0.008462     0.006892 
Rotational constants in MHz :   525.387857   253.689156   206.615960 

 Dipole components along the rotational axes: 
x,y,z [a.u.] :     0.007768    -0.729195     0.356916 
x,y,z [Debye]:     0.019744    -1.853466     0.907209 

 

Timings for individual modules:

Sum of individual times         ...       20.802 sec (=   0.347 min)
GTO integral calculation        ...        0.791 sec (=   0.013 min)   3.8 %
SCF iterations                  ...       20.012 sec (=   0.334 min)  96.2 %
                             ****ORCA TERMINATED NORMALLY****
TOTAL RUN TIME: 0 days 0 hours 0 minutes 21 seconds 524 msec
