
                                 *****************
                                 * O   R   C   A *
                                 *****************

           --- An Ab Initio, DFT and Semiempirical electronic structure package ---

                  #######################################################
                  #                        -***-                        #
                  #          Department of theory and spectroscopy      #
                  #               Directorship: Frank Neese             #
                  #        Max Planck Institute fuer Kohlenforschung    #
                  #                Kaiser Wilhelm Platz 1               #
                  #                 D-45470 Muelheim/Ruhr               #
                  #                      Germany                        #
                  #                                                     #
                  #                  All rights reserved                #
                  #                        -***-                        #
                  #######################################################


                         Program Version 4.2.1 -  RELEASE  -


 With contributions from (in alphabetic order):
   Daniel Aravena         : Magnetic Suceptibility
   Michael Atanasov       : Ab Initio Ligand Field Theory (pilot matlab implementation)
   Alexander A. Auer      : GIAO ZORA, VPT2
   Ute Becker             : Parallelization
   Giovanni Bistoni       : ED, misc. LED, open-shell LED, HFLD
   Martin Brehm           : Molecular dynamics
   Dmytro Bykov           : SCF Hessian
   Vijay G. Chilkuri      : MRCI spin determinant printing, contributions to CSF-ICE
   Dipayan Datta          : RHF DLPNO-CCSD density
   Achintya Kumar Dutta   : EOM-CC, STEOM-CC
   Dmitry Ganyushin       : Spin-Orbit,Spin-Spin,Magnetic field MRCI
   Miquel Garcia          : C-PCM Hessian, Gaussian charge scheme
   Yang Guo               : DLPNO-NEVPT2, CIM, IAO-localization
   Andreas Hansen         : Spin unrestricted coupled pair/coupled cluster methods
   Benjamin Helmich-Paris : CASSCF linear response (MC-RPA)
   Lee Huntington         : MR-EOM, pCC
   Robert Izsak           : Overlap fitted RIJCOSX, COSX-SCS-MP3, EOM
   Christian Kollmar      : KDIIS, OOCD, Brueckner-CCSD(T), CCSD density
   Simone Kossmann        : Meta GGA functionals, TD-DFT gradient, OOMP2, MP2 Hessian
   Martin Krupicka        : AUTO-CI
   Lucas Lang             : DCDCAS
   Dagmar Lenk            : GEPOL surface, SMD
   Dimitrios Liakos       : Extrapolation schemes; Compound Job, initial MDCI parallelization
   Dimitrios Manganas     : Further ROCIS development; embedding schemes
   Dimitrios Pantazis     : SARC Basis sets
   Taras Petrenko         : DFT Hessian,TD-DFT gradient, ASA, ECA, R-Raman, ABS, FL, XAS/XES, NRVS
   Peter Pinski           : DLPNO-MP2, DLPNO-MP2 Gradient
   Christoph Reimann      : Effective Core Potentials
   Marius Retegan         : Local ZFS, SOC
   Christoph Riplinger    : Optimizer, TS searches, QM/MM, DLPNO-CCSD(T), (RO)-DLPNO pert. Triples
   Tobias Risthaus        : Range-separated hybrids, TD-DFT gradient, RPA, STAB
   Michael Roemelt        : Original ROCIS implementation
   Masaaki Saitow         : Open-shell DLPNO-CCSD energy and density
   Barbara Sandhoefer     : DKH picture change effects
   Avijit Sen             : IP-ROCIS
   Kantharuban Sivalingam : CASSCF convergence, NEVPT2, FIC-MRCI
   Bernardo de Souza      : ESD, SOC TD-DFT
   Georgi Stoychev        : AutoAux, RI-MP2 NMR
   Willem Van den Heuvel  : Paramagnetic NMR
   Boris Wezisla          : Elementary symmetry handling
   Frank Wennmohs         : Technical directorship


 We gratefully acknowledge several colleagues who have allowed us to
 interface, adapt or use parts of their codes:
   Stefan Grimme, W. Hujo, H. Kruse,             : VdW corrections, initial TS optimization,
                  C. Bannwarth                     DFT functionals, gCP, sTDA/sTD-DF
   Ed Valeev, F. Pavosevic, A. Kumar             : LibInt (2-el integral package), F12 methods
   Garnet Chan, S. Sharma, J. Yang, R. Olivares  : DMRG
   Ulf Ekstrom                                   : XCFun DFT Library
   Mihaly Kallay                                 : mrcc  (arbitrary order and MRCC methods)
   Andreas Klamt, Michael Diedenhofen            : otool_cosmo (COSMO solvation model)
   Jiri Pittner, Ondrej Demel                    : Mk-CCSD
   Frank Weinhold                                : gennbo (NPA and NBO analysis)
   Christopher J. Cramer and Donald G. Truhlar   : smd solvation model
   Lars Goerigk                                  : TD-DFT with DH, B97 family of functionals
   V. Asgeirsson, H. Jonsson                     : NEB implementation
   FAccTs GmbH                                   : IRC, NEB, NEB-TS, Multilevel, MM, QM/MM, CI optimization
   S Lehtola, MJT Oliveira, MAL Marques          : LibXC Library


 Your calculation uses the libint2 library for the computation of 2-el integrals
 For citations please refer to: http://libint.valeyev.net

 Your ORCA version has been built with support for libXC version: 4.2.3
 For citations please refer to: https://tddft.org/programs/libxc/

 This ORCA versions uses:
   CBLAS   interface :  Fast vector & matrix operations
   LAPACKE interface :  Fast linear algebra routines
   SCALAPACK package :  Parallel linear algebra routines


Your calculation utilizes the atom-pairwise dispersion correction
with the zero-damping scheme (D30)
Cite in your paper:
S.Grimme, J.Antony, S.Ehrlich and H.Krieg, J.Chem.Phys., 132, (2010), 154104 
   

XCFun DFT library Copyright 2009-2010 Ulf Ekstrom and contributors.
See http://admol.org/xcfun for more information. This is free soft-
ware; see the source code for copying conditions. There is ABSOLUTELY
NO WARRANTY; not even for MERCHANTABILITY or FITNESS FOR A PARTICULAR
PURPOSE. For details see the documentation. Scientific users of this 
library should cite U. Ekstrom, L. Visscher, R. Bast, A. J. Thorvald-
sen and K. Ruud; J.Chem.Theor.Comp. 2010, DOI: 10.1021/ct100117s
XCFun Version 0.99 
----- Orbital basis set information -----
Your calculation utilizes the basis: def2-SVP
   F. Weigend and R. Ahlrichs, Phys. Chem. Chem. Phys. 7, 3297 (2005).

================================================================================
                                        WARNINGS
                       Please study these warnings very carefully!
================================================================================


INFO   : the flag for use of LIBINT has been found!

================================================================================
                                       INPUT FILE
================================================================================
NAME = config_3174.inp
|  1> ! wB97X-D3 SP def2-SVP
|  2> %pal
|  3> nprocs 24
|  4> end
|  5> 
|  6> * xyz 0 1
|  7> S 	 -107.011 	 39.3938 	 -10.5338 	 
|  8> C 	 -107.633 	 40.3885 	 -11.857 	 
|  9> C 	 -107.883 	 39.641 	 -13.0226 	 
| 10> C 	 -107.75 	 38.286 	 -12.7106 	 
| 11> C 	 -107.416 	 37.9277 	 -11.3863 	 
| 12> H 	 -107.995 	 37.4595 	 -13.4294 	 
| 13> C 	 -108.12 	 40.289 	 -14.3675 	 
| 14> H 	 -108.876 	 41.0031 	 -14.277 	 
| 15> H 	 -108.494 	 39.4738 	 -14.9779 	 
| 16> C 	 -106.921 	 40.8603 	 -15.183 	 
| 17> H 	 -106.285 	 41.4784 	 -14.505 	 
| 18> H 	 -106.311 	 40.0936 	 -15.5975 	 
| 19> C 	 -107.471 	 41.6313 	 -16.3622 	 
| 20> H 	 -108.01 	 40.9669 	 -17.0584 	 
| 21> H 	 -108.214 	 42.4339 	 -16.1136 	 
| 22> H 	 -106.693 	 42.1115 	 -17.0483 	 
| 23> S 	 -106.141 	 36.7961 	 -9.2499 	 
| 24> C 	 -105.991 	 35.0333 	 -9.16594 	 
| 25> C 	 -106.248 	 34.4773 	 -10.3998 	 
| 26> C 	 -106.991 	 35.2993 	 -11.3055 	 
| 27> C 	 -107.011 	 36.6357 	 -10.7959 	 
| 28> H 	 -106.119 	 33.3974 	 -10.5395 	 
| 29> C 	 -107.457 	 34.844 	 -12.6591 	 
| 30> H 	 -106.995 	 33.8395 	 -12.7074 	 
| 31> H 	 -107.048 	 35.4339 	 -13.5463 	 
| 32> C 	 -108.998 	 34.7565 	 -12.8735 	 
| 33> H 	 -109.456 	 35.8141 	 -12.7516 	 
| 34> H 	 -109.364 	 34.2514 	 -11.9914 	 
| 35> C 	 -109.408 	 34.0105 	 -14.1828 	 
| 36> H 	 -108.951 	 33.0232 	 -14.1083 	 
| 37> H 	 -109.23 	 34.4708 	 -15.1413 	 
| 38> H 	 -110.477 	 33.9106 	 -14.2581 	 
| 39> H 	 -107.29 	 41.4627 	 -11.9003 	 
| 40> H 	 -105.421 	 34.4592 	 -8.39007 	 
| 41> *
| 42> 
| 43>                          ****END OF INPUT****
================================================================================

                       ****************************
                       * Single Point Calculation *
                       ****************************

---------------------------------
CARTESIAN COORDINATES (ANGSTROEM)
---------------------------------
  S    -107.011000   39.393800  -10.533800
  C    -107.633000   40.388500  -11.857000
  C    -107.883000   39.641000  -13.022600
  C    -107.750000   38.286000  -12.710600
  C    -107.416000   37.927700  -11.386300
  H    -107.995000   37.459500  -13.429400
  C    -108.120000   40.289000  -14.367500
  H    -108.876000   41.003100  -14.277000
  H    -108.494000   39.473800  -14.977900
  C    -106.921000   40.860300  -15.183000
  H    -106.285000   41.478400  -14.505000
  H    -106.311000   40.093600  -15.597500
  C    -107.471000   41.631300  -16.362200
  H    -108.010000   40.966900  -17.058400
  H    -108.214000   42.433900  -16.113600
  H    -106.693000   42.111500  -17.048300
  S    -106.141000   36.796100   -9.249900
  C    -105.991000   35.033300   -9.165940
  C    -106.248000   34.477300  -10.399800
  C    -106.991000   35.299300  -11.305500
  C    -107.011000   36.635700  -10.795900
  H    -106.119000   33.397400  -10.539500
  C    -107.457000   34.844000  -12.659100
  H    -106.995000   33.839500  -12.707400
  H    -107.048000   35.433900  -13.546300
  C    -108.998000   34.756500  -12.873500
  H    -109.456000   35.814100  -12.751600
  H    -109.364000   34.251400  -11.991400
  C    -109.408000   34.010500  -14.182800
  H    -108.951000   33.023200  -14.108300
  H    -109.230000   34.470800  -15.141300
  H    -110.477000   33.910600  -14.258100
  H    -107.290000   41.462700  -11.900300
  H    -105.421000   34.459200   -8.390070

----------------------------
CARTESIAN COORDINATES (A.U.)
----------------------------
  NO LB      ZA    FRAG     MASS         X           Y           Z
   0 S    16.0000    0    32.060  -202.221483   74.443493  -19.905997
   1 C     6.0000    0    12.011  -203.396893   76.323204  -22.406483
   2 C     6.0000    0    12.011  -203.869325   74.910634  -24.609148
   3 C     6.0000    0    12.011  -203.617991   72.350055  -24.019553
   4 C     6.0000    0    12.011  -202.986822   71.672966  -21.516989
   5 H     1.0000    0     1.008  -204.080974   70.788196  -25.377888
   6 C     6.0000    0    12.011  -204.317190   76.135176  -27.150640
   7 H     1.0000    0     1.008  -205.745823   77.484630  -26.979620
   8 H     1.0000    0     1.008  -205.023947   74.594671  -28.304129
   9 C     6.0000    0    12.011  -202.051408   77.214777  -28.691712
  10 H     1.0000    0     1.008  -200.849542   78.382816  -27.410478
  11 H     1.0000    0     1.008  -200.898675   75.765924  -29.475003
  12 C     6.0000    0    12.011  -203.090757   78.671756  -30.920077
  13 H     1.0000    0     1.008  -204.109320   77.416222  -32.235704
  14 H     1.0000    0     1.008  -204.494824   80.188450  -30.450291
  15 H     1.0000    0     1.008  -201.620550   79.579202  -32.216618
  16 S    16.0000    0    32.060  -200.577422   69.534552  -17.479778
  17 C     6.0000    0    12.011  -200.293963   66.203343  -17.321116
  18 C     6.0000    0    12.011  -200.779622   65.152655  -19.652774
  19 C     6.0000    0    12.011  -202.183689   66.706010  -21.364299
  20 C     6.0000    0    12.011  -202.221483   69.231440  -20.401294
  21 H     1.0000    0     1.008  -200.535848   63.111940  -19.916769
  22 C     6.0000    0    12.011  -203.064301   65.845617  -23.922232
  23 H     1.0000    0     1.008  -202.191248   63.947388  -24.013506
  24 H     1.0000    0     1.008  -202.291403   66.960367  -25.598797
  25 C     6.0000    0    12.011  -205.976369   65.680266  -24.327389
  26 H     1.0000    0     1.008  -206.841864   67.678841  -24.097032
  27 H     1.0000    0     1.008  -206.668009   64.725766  -22.660462
  28 C     6.0000    0    12.011  -206.751157   64.270531  -26.801608
  29 H     1.0000    0     1.008  -205.887552   62.404804  -26.660823
  30 H     1.0000    0     1.008  -206.414786   65.140372  -28.612910
  31 H     1.0000    0     1.008  -208.771274   64.081747  -26.943904
  32 H     1.0000    0     1.008  -202.748717   78.353148  -22.488308
  33 H     1.0000    0     1.008  -199.216819   65.118451  -15.854935

--------------------------------
INTERNAL COORDINATES (ANGSTROEM)
--------------------------------
 S      0   0   0     0.000000000000     0.00000000     0.00000000
 C      1   0   0     1.768380708445     0.00000000     0.00000000
 C      2   1   0     1.407081948573   112.55157931     0.00000000
 C      3   2   1     1.396802777775   108.26375703     8.88978817
 C      4   3   2     1.411986324296   118.56665993     0.06070249
 H      4   3   2     1.122408432791   123.40098209   173.67088669
 C      3   2   1     1.511565086260   122.49058050   193.94339584
 H      7   3   2     1.043870231399   109.24937696   307.39842514
 H      7   3   2     1.084903313664   103.44567254   192.27825942
 C      7   3   2     1.558532944791   120.13751736    76.71177987
 H     10   7   3     1.116345649877   108.87229847   312.67924057
 H     10   7   3     1.063832289414   112.38421366    72.27970034
 C     10   7   3     1.512433020005   108.36463607   188.81940584
 H     13  10   7     1.103015321743   111.26931724   295.50022874
 H     13  10   7     1.121613890784   115.64982017    54.26456936
 H     13  10   7     1.143070098463   115.76129639   179.76287839
 S      5   4   3     2.733193831399   161.53444475   233.08467132
 C     17   5   4     1.771161517649   119.25035954   301.99405891
 C     18  17   5     1.377532395118   110.08749394    15.95056419
 C     19  18  17     1.431092411412   115.58783340   339.60925291
 C     20  19  18     1.430404530194   108.56790978    13.56697083
 H     19  18  17     1.096513155416   119.31905615   175.15633221
 C     20  19  18     1.502227362951   123.86410528   184.48877462
 H     23  20  19     1.106705534458   100.65653540   355.47705493
 H     23  20  19     1.141221648060   115.63638648   241.10406653
 C     23  20  19     1.558301835332   116.59963727   115.42296884
 H     26  23  20     1.158939761161   108.97093598    62.20346550
 H     26  23  20     1.080362170756   104.41416194   313.88893890
 C     26  23  20     1.561692187981   113.69032518   191.71456785
 H     29  26  23     1.090486377723   105.37800929    57.10426055
 H     29  26  23     1.078091990509   119.87340553   289.49924063
 H     29  26  23     1.076295080357   111.33065937   175.95950309
 H      2   1   3     1.128463348984   117.20943449   211.10128538
 H     18  17   5     1.120921525755   125.84732820   174.64957755

---------------------------
INTERNAL COORDINATES (A.U.)
---------------------------
 S      0   0   0     0.000000000000     0.00000000     0.00000000
 C      1   0   0     3.341755239470     0.00000000     0.00000000
 C      2   1   0     2.658999530787   112.55157931     0.00000000
 C      3   2   1     2.639574713095   108.26375703     8.88978817
 C      4   3   2     2.668267457762   118.56665993     0.06070249
 H      4   3   2     2.121044548378   123.40098209   173.67088669
 C      3   2   1     2.856444046628   122.49058050   193.94339584
 H      7   3   2     1.972628856696   109.24937696   307.39842514
 H      7   3   2     2.050170144609   103.44567254   192.27825942
 C      7   3   2     2.945200436349   120.13751736    76.71177987
 H     10   7   3     2.109587549062   108.87229847   312.67924057
 H     10   7   3     2.010351679415   112.38421366    72.27970034
 C     10   7   3     2.858084203708   108.36463607   188.81940584
 H     13  10   7     2.084396879613   111.26931724   295.50022874
 H     13  10   7     2.119543081584   115.64982017    54.26456936
 H     13  10   7     2.160089437969   115.76129639   179.76287839
 S      5   4   3     5.164987812268   161.53444475   233.08467132
 C     17   5   4     3.347010207297   119.25035954   301.99405891
 C     18  17   5     2.603158967378   110.08749394    15.95056419
 C     19  18  17     2.704372729901   115.58783340   339.60925291
 C     20  19  18     2.703072822787   108.56790978    13.56697083
 H     19  18  17     2.072109565978   119.31905615   175.15633221
 C     20  19  18     2.838798306861   123.86410528   184.48877462
 H     23  20  19     2.091370371021   100.65653540   355.47705493
 H     23  20  19     2.156596372935   115.63638648   241.10406653
 C     23  20  19     2.944763702765   116.59963727   115.42296884
 H     26  23  20     2.190078754306   108.97093598    62.20346550
 H     26  23  20     2.041588628177   104.41416194   313.88893890
 C     26  23  20     2.951170540768   113.69032518   191.71456785
 H     29  26  23     2.060720606669   105.37800929    57.10426055
 H     29  26  23     2.037298609236   119.87340553   289.49924063
 H     29  26  23     2.033902941161   111.33065937   175.95950309
 H      2   1   3     2.132486681747   117.20943449   211.10128538
 H     18  17   5     2.118234701293   125.84732820   174.64957755

---------------------
BASIS SET INFORMATION
---------------------
There are 3 groups of distinct atoms

 Group   1 Type S   : 10s7p1d contracted to 4s3p1d pattern {5311/511/1}
 Group   2 Type C   : 7s4p1d contracted to 3s2p1d pattern {511/31/1}
 Group   3 Type H   : 4s1p contracted to 2s1p pattern {31/1}

Atom   0S    basis set group =>   1
Atom   1C    basis set group =>   2
Atom   2C    basis set group =>   2
Atom   3C    basis set group =>   2
Atom   4C    basis set group =>   2
Atom   5H    basis set group =>   3
Atom   6C    basis set group =>   2
Atom   7H    basis set group =>   3
Atom   8H    basis set group =>   3
Atom   9C    basis set group =>   2
Atom  10H    basis set group =>   3
Atom  11H    basis set group =>   3
Atom  12C    basis set group =>   2
Atom  13H    basis set group =>   3
Atom  14H    basis set group =>   3
Atom  15H    basis set group =>   3
Atom  16S    basis set group =>   1
Atom  17C    basis set group =>   2
Atom  18C    basis set group =>   2
Atom  19C    basis set group =>   2
Atom  20C    basis set group =>   2
Atom  21H    basis set group =>   3
Atom  22C    basis set group =>   2
Atom  23H    basis set group =>   3
Atom  24H    basis set group =>   3
Atom  25C    basis set group =>   2
Atom  26H    basis set group =>   3
Atom  27H    basis set group =>   3
Atom  28C    basis set group =>   2
Atom  29H    basis set group =>   3
Atom  30H    basis set group =>   3
Atom  31H    basis set group =>   3
Atom  32H    basis set group =>   3
Atom  33H    basis set group =>   3


           ************************************************************
           *        Program running with 24 parallel MPI-processes    *
           *              working on a common directory               *
           ************************************************************
------------------------------------------------------------------------------
                           ORCA GTO INTEGRAL CALCULATION
------------------------------------------------------------------------------

                         BASIS SET STATISTICS AND STARTUP INFO

 # of primitive gaussian shells          ...  294
 # of primitive gaussian functions       ...  534
 # of contracted shells                  ...  154
 # of contracted basis functions         ...  322
 Highest angular momentum                ...    2
 Maximum contraction depth               ...    5
 Integral package used                   ... LIBINT
 Integral threshhold            Thresh   ...  1.000e-10
 Primitive cut-off              TCut     ...  1.000e-11


------------------------------ INTEGRAL EVALUATION ----------------------------


 * One electron integrals 
 Pre-screening matrix                    ... done
 Shell pair data                         ... done (   0.003 sec)



           ************************************************************
           *        Program running with 24 parallel MPI-processes    *
           *              working on a common directory               *
           ************************************************************
-------------------------------------------------------------------------------
                                 ORCA SCF
-------------------------------------------------------------------------------

------------
SCF SETTINGS
------------
Hamiltonian:
 Density Functional     Method          .... DFT(GTOs)
 Exchange Functional    Exchange        .... WB97X-D3
 Correlation Functional Correlation     .... WB97X-D3
 Gradients option       PostSCFGGA      .... off
 Hybrid DFT is turned on
   Fraction HF Exchange ScalHFX         ....  0.195728
   Scaling of DF-GGA-X  ScalDFX         ....  0.000000
   Scaling of DF-GGA-C  ScalDFC         ....  1.000000
   Scaling of DF-LDA-C  ScalLDAC        ....  1.000000
   Perturbative correction              ....  0.000000
   Density functional embedding theory  .... OFF
 Long-range corrected/Screened/Range-Separated Hybrid DFT is turned on
   Amount of maximum screened exact exchange              ....  0.804272
   Range separation parameter mu (erf(mu*r12)/r12)        ....  0.250000


General Settings:
 Integral files         IntName         .... config_3174
 Hartree-Fock type      HFTyp           .... RHF
 Total Charge           Charge          ....    0
 Multiplicity           Mult            ....    1
 Number of Electrons    NEL             ....  134
 Basis Dimension        Dim             ....  322
 Nuclear Repulsion      ENuc            ....   1266.6938355007 Eh

Convergence Acceleration:
 DIIS                   CNVDIIS         .... on
   Start iteration      DIISMaxIt       ....    12
   Startup error        DIISStart       ....  0.200000
   # of expansion vecs  DIISMaxEq       ....     5
   Bias factor          DIISBfac        ....   1.050
   Max. coefficient     DIISMaxC        ....  10.000
 Newton-Raphson         CNVNR           .... off
 SOSCF                  CNVSOSCF        .... on
   Start iteration      SOSCFMaxIt      ....   150
   Startup grad/error   SOSCFStart      ....  0.003300
 Level Shifting         CNVShift        .... on
   Level shift para.    LevelShift      ....    0.2500
   Turn off err/grad.   ShiftErr        ....    0.0010
 Zerner damping         CNVZerner       .... off
 Static damping         CNVDamp         .... on
   Fraction old density DampFac         ....    0.7000
   Max. Damping (<1)    DampMax         ....    0.9800
   Min. Damping (>=0)   DampMin         ....    0.0000
   Turn off err/grad.   DampErr         ....    0.1000
 Fernandez-Rico         CNVRico         .... off

SCF Procedure:
 Maximum # iterations   MaxIter         ....   125
 SCF integral mode      SCFMode         .... Direct
   Integral package                     .... LIBINT
 Reset frequency        DirectResetFreq ....    20
 Integral Threshold     Thresh          ....  1.000e-10 Eh
 Primitive CutOff       TCut            ....  1.000e-11 Eh

Convergence Tolerance:
 Convergence Check Mode ConvCheckMode   .... Total+1el-Energy
 Convergence forced     ConvForced      .... 0
 Energy Change          TolE            ....  1.000e-06 Eh
 1-El. energy change                    ....  1.000e-03 Eh
 Orbital Gradient       TolG            ....  5.000e-05
 Orbital Rotation angle TolX            ....  5.000e-05
 DIIS Error             TolErr          ....  1.000e-06


Diagonalization of the overlap matrix:
Smallest eigenvalue                        ... 6.302e-04
Time for diagonalization                   ...    0.014 sec
Threshold for overlap eigenvalues          ... 1.000e-08
Number of eigenvalues below threshold      ... 0
Time for construction of square roots      ...    0.026 sec
Total time needed                          ...    0.041 sec

-------------------
DFT GRID GENERATION
-------------------

General Integration Accuracy     IntAcc      ...  4.340
Radial Grid Type                 RadialGrid  ... Gauss-Chebyshev
Angular Grid (max. acc.)         AngularGrid ... Lebedev-110
Angular grid pruning method      GridPruning ... 3 (G Style)
Weight generation scheme         WeightScheme... Becke
Basis function cutoff            BFCut       ...    1.0000e-10
Integration weight cutoff        WCut        ...    1.0000e-14
Grids for H and He will be reduced by one unit

# of grid points (after initial pruning)     ...  41088 (   0.0 sec)
# of grid points (after weights+screening)   ...  37097 (   0.0 sec)
nearest neighbour list constructed           ...    0.0 sec
Grid point re-assignment to atoms done       ...    0.0 sec
Grid point division into batches done        ...    0.0 sec
Reduced shell lists constructed in    0.1 sec

Total number of grid points                  ...    37097
Total number of batches                      ...      596
Average number of points per batch           ...       62
Average number of grid points per atom       ...     1091
Average number of shells per batch           ...    69.73 (45.28%)
Average number of basis functions per batch  ...   138.50 (43.01%)
Average number of large shells per batch     ...    44.15 (63.32%)
Average number of large basis fcns per batch ...    92.92 (67.09%)
Maximum spatial batch extension              ...  19.84, 11.34, 17.79 au
Average spatial batch extension              ...   0.18,  0.15,  0.18 au

Time for grid setup =    0.151 sec

------------------------------
INITIAL GUESS: MODEL POTENTIAL
------------------------------
Loading Hartree-Fock densities                     ... done
Calculating cut-offs                               ... done
Setting up the integral package                    ... done
Initializing the effective Hamiltonian             ... done
Starting the Coulomb interaction                   ... done (   0.0 sec)
Reading the grid                                   ... done
Mapping shells                                     ... done
Starting the XC term evaluation                    ... done (   0.0 sec)
  promolecular density results
     # of electrons  =    133.990443733
     EX              =   -126.640806891
     EC              =     -4.610907389
     EX+EC           =   -131.251714280
Transforming the Hamiltonian                       ... done (   0.0 sec)
Diagonalizing the Hamiltonian                      ... done (   0.0 sec)
Back transforming the eigenvectors                 ... done (   0.0 sec)
Now organizing SCF variables                       ... done
                      ------------------
                      INITIAL GUESS DONE (   0.3 sec)
                      ------------------
--------------
SCF ITERATIONS
--------------
ITER       Energy         Delta-E        Max-DP      RMS-DP      [F,P]     Damp
               ***  Starting incremental Fock matrix formation  ***
  0  -1339.4274856564   0.000000000000 0.06407952  0.00155429  0.1542745 0.7000
  1  -1339.6077148227  -0.180229166253 0.04315358  0.00112836  0.0934260 0.7000
                               ***Turning on DIIS***
  2  -1339.6937705157  -0.086055693007 0.08386734  0.00208714  0.0485177 0.0000
  3  -1339.8227001700  -0.128929654299 0.04006562  0.00098309  0.0469274 0.0000
  4  -1339.8518358005  -0.029135630525 0.00803437  0.00020734  0.0081810 0.0000
                      *** Initiating the SOSCF procedure ***
                           *** Shutting down DIIS ***
                      *** Re-Reading the Fockian *** 
                      *** Removing any level shift *** 
ITER      Energy       Delta-E        Grad      Rot      Max-DP    RMS-DP
  5  -1339.85274517  -0.0009093720  0.001565  0.001565  0.002908  0.000098
               *** Restarting incremental Fock matrix formation ***
  6  -1339.85294724  -0.0002020702  0.001341  0.003891  0.002502  0.000065
  7  -1339.85301663  -0.0000693828  0.000845  0.005339  0.002844  0.000064
  8  -1339.85303466  -0.0000180348  0.000548  0.001163  0.000858  0.000020
  9  -1339.85304038  -0.0000057147  0.000162  0.000437  0.000325  0.000009
 10  -1339.85304083  -0.0000004559  0.000098  0.000299  0.000167  0.000004
                 **** Energy Check signals convergence ****
              ***Rediagonalizing the Fockian in SOSCF/NRSCF***

               *****************************************************
               *                     SUCCESS                       *
               *           SCF CONVERGED AFTER  11 CYCLES          *
               *****************************************************

Setting up the final grid:

General Integration Accuracy     IntAcc      ...  4.670
Radial Grid Type                 RadialGrid  ... Gauss-Chebyshev
Angular Grid (max. acc.)         AngularGrid ... Lebedev-302
Angular grid pruning method      GridPruning ... 3 (G Style)
Weight generation scheme         WeightScheme... Becke
Basis function cutoff            BFCut       ...    1.0000e-10
Integration weight cutoff        WCut        ...    1.0000e-14
Grids for H and He will be reduced by one unit

# of grid points (after initial pruning)     ... 161752 (   0.0 sec)
# of grid points (after weights+screening)   ... 143294 (   0.1 sec)
nearest neighbour list constructed           ...    0.0 sec
Grid point re-assignment to atoms done       ...    0.0 sec
Grid point division into batches done        ...    0.5 sec
Reduced shell lists constructed in    0.5 sec

Total number of grid points                  ...   143294
Total number of batches                      ...     2258
Average number of points per batch           ...       63
Average number of grid points per atom       ...     4215
Average number of shells per batch           ...    64.12 (41.64%)
Average number of basis functions per batch  ...   127.81 (39.69%)
Average number of large shells per batch     ...    39.91 (62.23%)
Average number of large basis fcns per batch ...    83.82 (65.58%)
Maximum spatial batch extension              ...  15.63, 10.30, 14.02 au
Average spatial batch extension              ...   0.12,  0.10,  0.11 au

Final grid set up in    0.8 sec
Final integration                            ... done (   0.2 sec)
Change in XC energy                          ...     0.006749810
Integrated number of electrons               ...   133.999830385
Previous integrated no of electrons          ...   133.997815856

----------------
TOTAL SCF ENERGY
----------------

Total Energy       :        -1339.84629136 Eh          -36459.07113 eV

Components:
Nuclear Repulsion  :         1266.69383550 Eh           34468.49161 eV
Electronic Energy  :        -2606.54012686 Eh          -70927.56274 eV
One Electron Energy:        -4349.88142653 Eh         -118366.29124 eV
Two Electron Energy:         1743.34129967 Eh           47438.72850 eV

Virial components:
Potential Energy   :        -2670.77997336 Eh          -72675.61783 eV
Kinetic Energy     :         1330.93368200 Eh           36216.54670 eV
Virial Ratio       :            2.00669651


DFT components:
N(Alpha)           :       66.999915192564 electrons
N(Beta)            :       66.999915192564 electrons
N(Total)           :      133.999830385128 electrons
E(XC)              :      -94.133866408647 Eh       
DFET-embed. en.    :        0.000000000000 Eh       

---------------
SCF CONVERGENCE
---------------

  Last Energy change         ...   -3.4196e-07  Tolerance :   1.0000e-06
  Last MAX-Density change    ...    3.9203e-05  Tolerance :   1.0000e-05
  Last RMS-Density change    ...    9.0493e-07  Tolerance :   1.0000e-06
  Last Orbital Gradient      ...    9.1575e-06  Tolerance :   5.0000e-05
  Last Orbital Rotation      ...    2.6502e-05  Tolerance :   5.0000e-05

             **** THE GBW FILE WAS UPDATED (config_3174.gbw) ****
             **** DENSITY FILE WAS UPDATED (config_3174.scfp) ****
             **** ENERGY FILE WAS UPDATED (config_3174.en.tmp) ****
             **** THE GBW FILE WAS UPDATED (config_3174.gbw) ****
             **** DENSITY FILE WAS UPDATED (config_3174.scfp) ****
----------------
ORBITAL ENERGIES
----------------

  NO   OCC          E(Eh)            E(eV) 
   0   2.0000     -88.969622     -2420.9865 
   1   2.0000     -88.967193     -2420.9204 
   2   2.0000     -10.338839      -281.3341 
   3   2.0000     -10.335444      -281.2417 
   4   2.0000     -10.322832      -280.8985 
   5   2.0000     -10.317447      -280.7520 
   6   2.0000     -10.310717      -280.5689 
   7   2.0000     -10.304647      -280.4037 
   8   2.0000     -10.302759      -280.3523 
   9   2.0000     -10.299566      -280.2654 
  10   2.0000     -10.298696      -280.2418 
  11   2.0000     -10.297581      -280.2114 
  12   2.0000     -10.292688      -280.0783 
  13   2.0000     -10.292111      -280.0626 
  14   2.0000     -10.289114      -279.9810 
  15   2.0000     -10.282282      -279.7951 
  16   2.0000      -8.083599      -219.9659 
  17   2.0000      -8.081794      -219.9168 
  18   2.0000      -6.042197      -164.4165 
  19   2.0000      -6.040241      -164.3633 
  20   2.0000      -6.038457      -164.3148 
  21   2.0000      -6.036384      -164.2584 
  22   2.0000      -6.034062      -164.1952 
  23   2.0000      -6.032573      -164.1547 
  24   2.0000      -1.004784       -27.3416 
  25   2.0000      -0.980826       -26.6896 
  26   2.0000      -0.915891       -24.9227 
  27   2.0000      -0.905559       -24.6415 
  28   2.0000      -0.870658       -23.6918 
  29   2.0000      -0.850767       -23.1506 
  30   2.0000      -0.844613       -22.9831 
  31   2.0000      -0.811557       -22.0836 
  32   2.0000      -0.783733       -21.3265 
  33   2.0000      -0.769492       -20.9389 
  34   2.0000      -0.708805       -19.2876 
  35   2.0000      -0.705908       -19.2087 
  36   2.0000      -0.688081       -18.7236 
  37   2.0000      -0.662825       -18.0364 
  38   2.0000      -0.633400       -17.2357 
  39   2.0000      -0.619304       -16.8521 
  40   2.0000      -0.593707       -16.1556 
  41   2.0000      -0.571988       -15.5646 
  42   2.0000      -0.561473       -15.2785 
  43   2.0000      -0.557281       -15.1644 
  44   2.0000      -0.524499       -14.2723 
  45   2.0000      -0.522438       -14.2163 
  46   2.0000      -0.512661       -13.9502 
  47   2.0000      -0.509315       -13.8592 
  48   2.0000      -0.506349       -13.7785 
  49   2.0000      -0.494169       -13.4470 
  50   2.0000      -0.489565       -13.3217 
  51   2.0000      -0.482963       -13.1421 
  52   2.0000      -0.467659       -12.7256 
  53   2.0000      -0.461375       -12.5547 
  54   2.0000      -0.458260       -12.4699 
  55   2.0000      -0.453940       -12.3523 
  56   2.0000      -0.442980       -12.0541 
  57   2.0000      -0.440377       -11.9833 
  58   2.0000      -0.436631       -11.8813 
  59   2.0000      -0.431987       -11.7550 
  60   2.0000      -0.422257       -11.4902 
  61   2.0000      -0.418727       -11.3941 
  62   2.0000      -0.410605       -11.1731 
  63   2.0000      -0.358809        -9.7637 
  64   2.0000      -0.339634        -9.2419 
  65   2.0000      -0.328468        -8.9381 
  66   2.0000      -0.276627        -7.5274 
  67   0.0000       0.005510         0.1499 
  68   0.0000       0.075333         2.0499 
  69   0.0000       0.079885         2.1738 
  70   0.0000       0.117185         3.1888 
  71   0.0000       0.132694         3.6108 
  72   0.0000       0.143008         3.8915 
  73   0.0000       0.154142         4.1944 
  74   0.0000       0.159219         4.3326 
  75   0.0000       0.163634         4.4527 
  76   0.0000       0.172971         4.7068 
  77   0.0000       0.175238         4.7685 
  78   0.0000       0.180090         4.9005 
  79   0.0000       0.191227         5.2035 
  80   0.0000       0.192995         5.2517 
  81   0.0000       0.196675         5.3518 
  82   0.0000       0.199793         5.4366 
  83   0.0000       0.213914         5.8209 
  84   0.0000       0.223559         6.0834 
  85   0.0000       0.227059         6.1786 
  86   0.0000       0.233367         6.3502 
  87   0.0000       0.237756         6.4697 
  88   0.0000       0.247466         6.7339 
  89   0.0000       0.248941         6.7740 
  90   0.0000       0.254179         6.9166 
  91   0.0000       0.254457         6.9241 
  92   0.0000       0.277982         7.5643 
  93   0.0000       0.301279         8.1982 
  94   0.0000       0.310106         8.4384 
  95   0.0000       0.315241         8.5781 
  96   0.0000       0.324467         8.8292 
  97   0.0000       0.325548         8.8586 
  98   0.0000       0.340032         9.2527 
  99   0.0000       0.355765         9.6809 
 100   0.0000       0.375668        10.2224 
 101   0.0000       0.387015        10.5312 
 102   0.0000       0.409430        11.1412 
 103   0.0000       0.416293        11.3279 
 104   0.0000       0.442160        12.0318 
 105   0.0000       0.449702        12.2370 
 106   0.0000       0.466170        12.6851 
 107   0.0000       0.473620        12.8879 
 108   0.0000       0.485152        13.2017 
 109   0.0000       0.494064        13.4442 
 110   0.0000       0.501555        13.6480 
 111   0.0000       0.515949        14.0397 
 112   0.0000       0.520921        14.1750 
 113   0.0000       0.525837        14.3087 
 114   0.0000       0.530664        14.4401 
 115   0.0000       0.536131        14.5889 
 116   0.0000       0.541061        14.7230 
 117   0.0000       0.551394        15.0042 
 118   0.0000       0.562013        15.2932 
 119   0.0000       0.572062        15.5666 
 120   0.0000       0.574002        15.6194 
 121   0.0000       0.589337        16.0367 
 122   0.0000       0.596635        16.2353 
 123   0.0000       0.601773        16.3751 
 124   0.0000       0.607750        16.5377 
 125   0.0000       0.614207        16.7134 
 126   0.0000       0.630357        17.1529 
 127   0.0000       0.646694        17.5974 
 128   0.0000       0.651828        17.7371 
 129   0.0000       0.655289        17.8313 
 130   0.0000       0.673797        18.3349 
 131   0.0000       0.679209        18.4822 
 132   0.0000       0.688612        18.7381 
 133   0.0000       0.692234        18.8366 
 134   0.0000       0.696693        18.9580 
 135   0.0000       0.702914        19.1273 
 136   0.0000       0.705612        19.2007 
 137   0.0000       0.719682        19.5835 
 138   0.0000       0.727302        19.7909 
 139   0.0000       0.731667        19.9097 
 140   0.0000       0.739177        20.1140 
 141   0.0000       0.743142        20.2219 
 142   0.0000       0.745196        20.2778 
 143   0.0000       0.750557        20.4237 
 144   0.0000       0.756457        20.5842 
 145   0.0000       0.765901        20.8412 
 146   0.0000       0.768384        20.9088 
 147   0.0000       0.772112        21.0102 
 148   0.0000       0.775845        21.1118 
 149   0.0000       0.779188        21.2028 
 150   0.0000       0.780040        21.2260 
 151   0.0000       0.783728        21.3263 
 152   0.0000       0.785733        21.3809 
 153   0.0000       0.789724        21.4895 
 154   0.0000       0.791252        21.5311 
 155   0.0000       0.799925        21.7671 
 156   0.0000       0.805857        21.9285 
 157   0.0000       0.806214        21.9382 
 158   0.0000       0.810241        22.0478 
 159   0.0000       0.814501        22.1637 
 160   0.0000       0.820066        22.3151 
 161   0.0000       0.825244        22.4560 
 162   0.0000       0.834338        22.7035 
 163   0.0000       0.835770        22.7425 
 164   0.0000       0.846246        23.0275 
 165   0.0000       0.860304        23.4101 
 166   0.0000       0.869855        23.6700 
 167   0.0000       0.878111        23.8946 
 168   0.0000       0.890682        24.2367 
 169   0.0000       0.895127        24.3576 
 170   0.0000       0.901923        24.5426 
 171   0.0000       0.912086        24.8191 
 172   0.0000       0.924093        25.1459 
 173   0.0000       0.938315        25.5328 
 174   0.0000       0.959904        26.1203 
 175   0.0000       0.975026        26.5318 
 176   0.0000       0.989657        26.9299 
 177   0.0000       1.007323        27.4106 
 178   0.0000       1.015198        27.6249 
 179   0.0000       1.025827        27.9142 
 180   0.0000       1.050565        28.5873 
 181   0.0000       1.075605        29.2687 
 182   0.0000       1.094254        29.7762 
 183   0.0000       1.098767        29.8990 
 184   0.0000       1.111596        30.2481 
 185   0.0000       1.119407        30.4606 
 186   0.0000       1.125159        30.6171 
 187   0.0000       1.135960        30.9111 
 188   0.0000       1.148269        31.2460 
 189   0.0000       1.170099        31.8400 
 190   0.0000       1.203374        32.7455 
 191   0.0000       1.210513        32.9397 
 192   0.0000       1.223375        33.2897 
 193   0.0000       1.249504        34.0007 
 194   0.0000       1.274997        34.6944 
 195   0.0000       1.296361        35.2758 
 196   0.0000       1.328902        36.1613 
 197   0.0000       1.339866        36.4596 
 198   0.0000       1.362618        37.0787 
 199   0.0000       1.378514        37.5113 
 200   0.0000       1.409825        38.3633 
 201   0.0000       1.429168        38.8896 
 202   0.0000       1.435611        39.0650 
 203   0.0000       1.439553        39.1722 
 204   0.0000       1.457694        39.6659 
 205   0.0000       1.465633        39.8819 
 206   0.0000       1.470688        40.0195 
 207   0.0000       1.475856        40.1601 
 208   0.0000       1.526249        41.5314 
 209   0.0000       1.569483        42.7078 
 210   0.0000       1.597307        43.4649 
 211   0.0000       1.613003        43.8920 
 212   0.0000       1.634463        44.4760 
 213   0.0000       1.644843        44.7585 
 214   0.0000       1.646715        44.8094 
 215   0.0000       1.655289        45.0427 
 216   0.0000       1.685208        45.8568 
 217   0.0000       1.702474        46.3267 
 218   0.0000       1.733713        47.1767 
 219   0.0000       1.744864        47.4802 
 220   0.0000       1.761025        47.9199 
 221   0.0000       1.773209        48.2515 
 222   0.0000       1.785178        48.5772 
 223   0.0000       1.793681        48.8085 
 224   0.0000       1.808301        49.2064 
 225   0.0000       1.811726        49.2996 
 226   0.0000       1.822058        49.5807 
 227   0.0000       1.832380        49.8616 
 228   0.0000       1.853109        50.4257 
 229   0.0000       1.856137        50.5081 
 230   0.0000       1.862253        50.6745 
 231   0.0000       1.868598        50.8471 
 232   0.0000       1.874236        51.0006 
 233   0.0000       1.885322        51.3022 
 234   0.0000       1.893999        51.5383 
 235   0.0000       1.897209        51.6257 
 236   0.0000       1.903362        51.7931 
 237   0.0000       1.917329        52.1732 
 238   0.0000       1.920057        52.2474 
 239   0.0000       1.923191        52.3327 
 240   0.0000       1.927732        52.4563 
 241   0.0000       1.944718        52.9185 
 242   0.0000       1.954069        53.1729 
 243   0.0000       1.962493        53.4022 
 244   0.0000       1.971295        53.6417 
 245   0.0000       1.982600        53.9493 
 246   0.0000       1.995866        54.3103 
 247   0.0000       2.003380        54.5148 
 248   0.0000       2.008514        54.6544 
 249   0.0000       2.013622        54.7934 
 250   0.0000       2.020303        54.9752 
 251   0.0000       2.031901        55.2908 
 252   0.0000       2.038108        55.4597 
 253   0.0000       2.056832        55.9692 
 254   0.0000       2.062743        56.1301 
 255   0.0000       2.068750        56.2935 
 256   0.0000       2.096698        57.0541 
 257   0.0000       2.100526        57.1582 
 258   0.0000       2.108533        57.3761 
 259   0.0000       2.118833        57.6564 
 260   0.0000       2.173674        59.1487 
 261   0.0000       2.177747        59.2595 
 262   0.0000       2.190998        59.6201 
 263   0.0000       2.194195        59.7071 
 264   0.0000       2.205772        60.0221 
 265   0.0000       2.221180        60.4414 
 266   0.0000       2.247510        61.1579 
 267   0.0000       2.253978        61.3339 
 268   0.0000       2.274472        61.8915 
 269   0.0000       2.282750        62.1168 
 270   0.0000       2.308471        62.8167 
 271   0.0000       2.338522        63.6344 
 272   0.0000       2.353912        64.0532 
 273   0.0000       2.366506        64.3959 
 274   0.0000       2.398922        65.2780 
 275   0.0000       2.407223        65.5039 
 276   0.0000       2.427037        66.0430 
 277   0.0000       2.430608        66.1402 
 278   0.0000       2.454568        66.7922 
 279   0.0000       2.473009        67.2940 
 280   0.0000       2.479725        67.4767 
 281   0.0000       2.490934        67.7818 
 282   0.0000       2.505341        68.1738 
 283   0.0000       2.507211        68.2247 
 284   0.0000       2.520255        68.5796 
 285   0.0000       2.554887        69.5220 
 286   0.0000       2.560973        69.6876 
 287   0.0000       2.570701        69.9523 
 288   0.0000       2.582743        70.2800 
 289   0.0000       2.610286        71.0295 
 290   0.0000       2.621961        71.3472 
 291   0.0000       2.624042        71.4038 
 292   0.0000       2.645245        71.9808 
 293   0.0000       2.650863        72.1337 
 294   0.0000       2.690633        73.2159 
 295   0.0000       2.700510        73.4846 
 296   0.0000       2.727334        74.2145 
 297   0.0000       2.738853        74.5280 
 298   0.0000       2.760796        75.1251 
 299   0.0000       2.781081        75.6771 
 300   0.0000       2.797811        76.1323 
 301   0.0000       2.847070        77.4727 
 302   0.0000       2.862504        77.8927 
 303   0.0000       2.886361        78.5419 
 304   0.0000       2.947605        80.2084 
 305   0.0000       2.958701        80.5104 
 306   0.0000       2.972657        80.8901 
 307   0.0000       2.993952        81.4696 
 308   0.0000       3.018891        82.1482 
 309   0.0000       3.024590        82.3033 
 310   0.0000       3.042939        82.8026 
 311   0.0000       3.060253        83.2737 
 312   0.0000       3.079355        83.7935 
 313   0.0000       3.088330        84.0377 
 314   0.0000       3.113186        84.7141 
 315   0.0000       3.153448        85.8097 
 316   0.0000       3.162022        86.0430 
 317   0.0000       3.184087        86.6434 
 318   0.0000       3.211769        87.3967 
 319   0.0000       3.248013        88.3829 
 320   0.0000       3.327390        90.5429 
 321   0.0000       3.386115        92.1409 

                    ********************************
                    * MULLIKEN POPULATION ANALYSIS *
                    ********************************

-----------------------
MULLIKEN ATOMIC CHARGES
-----------------------
   0 S :    0.077438
   1 C :   -0.123526
   2 C :   -0.099096
   3 C :   -0.018743
   4 C :   -0.102022
   5 H :    0.016658
   6 C :    0.074986
   7 H :    0.022664
   8 H :    0.013522
   9 C :   -0.027266
  10 H :    0.034000
  11 H :    0.029073
  12 C :   -0.098519
  13 H :    0.027706
  14 H :    0.037752
  15 H :    0.046107
  16 S :    0.082351
  17 C :   -0.096976
  18 C :   -0.040620
  19 C :   -0.054304
  20 C :   -0.107344
  21 H :    0.029471
  22 C :    0.005285
  23 H :    0.016674
  24 H :    0.052104
  25 C :   -0.094233
  26 H :    0.048952
  27 H :    0.027245
  28 C :   -0.026398
  29 H :    0.035772
  30 H :    0.029224
  31 H :    0.030001
  32 H :    0.075088
  33 H :    0.076975
Sum of atomic charges:    0.0000000

--------------------------------
MULLIKEN REDUCED ORBITAL CHARGES
--------------------------------
  0 S s       :     5.842610  s :     5.842610
      pz      :     3.414647  p :     9.972112
      px      :     3.570150
      py      :     2.987315
      dz2     :     0.015756  d :     0.107841
      dxz     :     0.012747
      dyz     :     0.038404
      dx2y2   :     0.013923
      dxy     :     0.027011
  1 C s       :     3.179120  s :     3.179120
      pz      :     0.916748  p :     2.910898
      px      :     1.064513
      py      :     0.929636
      dz2     :     0.008072  d :     0.033508
      dxz     :     0.006401
      dyz     :     0.009953
      dx2y2   :     0.003933
      dxy     :     0.005148
  2 C s       :     3.083998  s :     3.083998
      pz      :     0.993188  p :     2.970864
      px      :     0.993487
      py      :     0.984190
      dz2     :     0.010898  d :     0.044234
      dxz     :     0.006796
      dyz     :     0.013279
      dx2y2   :     0.005491
      dxy     :     0.007771
  3 C s       :     3.192282  s :     3.192282
      pz      :     0.875994  p :     2.791714
      px      :     1.020337
      py      :     0.895383
      dz2     :     0.008249  d :     0.034747
      dxz     :     0.004768
      dyz     :     0.010237
      dx2y2   :     0.005311
      dxy     :     0.006182
  4 C s       :     3.063703  s :     3.063703
      pz      :     0.970676  p :     2.995040
      px      :     1.067814
      py      :     0.956550
      dz2     :     0.008765  d :     0.043279
      dxz     :     0.006353
      dyz     :     0.014290
      dx2y2   :     0.005767
      dxy     :     0.008104
  5 H s       :     0.960530  s :     0.960530
      pz      :     0.007643  p :     0.022811
      px      :     0.005342
      py      :     0.009827
  6 C s       :     2.943550  s :     2.943550
      pz      :     0.942098  p :     2.946054
      px      :     1.018781
      py      :     0.985175
      dz2     :     0.007261  d :     0.035409
      dxz     :     0.006891
      dyz     :     0.008737
      dx2y2   :     0.003309
      dxy     :     0.009211
  7 H s       :     0.951923  s :     0.951923
      pz      :     0.004629  p :     0.025413
      px      :     0.010543
      py      :     0.010241
  8 H s       :     0.962706  s :     0.962706
      pz      :     0.007631  p :     0.023772
      px      :     0.005802
      py      :     0.010339
  9 C s       :     3.037349  s :     3.037349
      pz      :     0.957056  p :     2.953832
      px      :     0.989381
      py      :     1.007396
      dz2     :     0.005193  d :     0.036085
      dxz     :     0.009912
      dyz     :     0.008261
      dx2y2   :     0.003113
      dxy     :     0.009607
 10 H s       :     0.944198  s :     0.944198
      pz      :     0.007543  p :     0.021801
      px      :     0.007065
      py      :     0.007193
 11 H s       :     0.947212  s :     0.947212
      pz      :     0.006251  p :     0.023715
      px      :     0.007606
      py      :     0.009857
 12 C s       :     3.059327  s :     3.059327
      pz      :     0.982288  p :     3.010906
      px      :     1.016047
      py      :     1.012570
      dz2     :     0.004169  d :     0.028287
      dxz     :     0.007307
      dyz     :     0.007294
      dx2y2   :     0.001304
      dxy     :     0.008213
 13 H s       :     0.948629  s :     0.948629
      pz      :     0.008395  p :     0.023666
      px      :     0.007310
      py      :     0.007960
 14 H s       :     0.940173  s :     0.940173
      pz      :     0.004114  p :     0.022075
      px      :     0.008462
      py      :     0.009499
 15 H s       :     0.932639  s :     0.932639
      pz      :     0.007006  p :     0.021254
      px      :     0.008236
      py      :     0.006012
 16 S s       :     5.845821  s :     5.845821
      pz      :     3.249702  p :     9.970008
      px      :     3.540924
      py      :     3.179382
      dz2     :     0.027961  d :     0.101819
      dxz     :     0.018886
      dyz     :     0.013879
      dx2y2   :     0.027358
      dxy     :     0.013734
 17 C s       :     3.159294  s :     3.159294
      pz      :     1.000225  p :     2.903345
      px      :     1.062273
      py      :     0.840847
      dz2     :     0.008794  d :     0.034338
      dxz     :     0.005853
      dyz     :     0.007861
      dx2y2   :     0.006399
      dxy     :     0.005431
 18 C s       :     3.160770  s :     3.160770
      pz      :     0.928745  p :     2.844005
      px      :     1.004315
      py      :     0.910946
      dz2     :     0.009566  d :     0.035845
      dxz     :     0.007212
      dyz     :     0.008674
      dx2y2   :     0.006441
      dxy     :     0.003951
 19 C s       :     3.094163  s :     3.094163
      pz      :     0.950525  p :     2.918458
      px      :     0.972785
      py      :     0.995148
      dz2     :     0.009082  d :     0.041683
      dxz     :     0.006298
      dyz     :     0.012281
      dx2y2   :     0.007097
      dxy     :     0.006924
 20 C s       :     3.061556  s :     3.061556
      pz      :     0.957046  p :     3.004546
      px      :     1.027978
      py      :     1.019522
      dz2     :     0.009486  d :     0.041242
      dxz     :     0.006365
      dyz     :     0.008782
      dx2y2   :     0.008105
      dxy     :     0.008503
 21 H s       :     0.947575  s :     0.947575
      pz      :     0.003550  p :     0.022954
      px      :     0.004627
      py      :     0.014777
 22 C s       :     3.012555  s :     3.012555
      pz      :     0.957179  p :     2.947186
      px      :     0.979408
      py      :     1.010599
      dz2     :     0.009211  d :     0.034974
      dxz     :     0.007334
      dyz     :     0.005238
      dx2y2   :     0.006226
      dxy     :     0.006965
 23 H s       :     0.960939  s :     0.960939
      pz      :     0.004593  p :     0.022388
      px      :     0.005388
      py      :     0.012407
 24 H s       :     0.927332  s :     0.927332
      pz      :     0.009043  p :     0.020564
      px      :     0.004885
      py      :     0.006636
 25 C s       :     3.090618  s :     3.090618
      pz      :     0.981669  p :     2.969184
      px      :     0.950971
      py      :     1.036543
      dz2     :     0.007949  d :     0.034431
      dxz     :     0.006209
      dyz     :     0.006735
      dx2y2   :     0.007469
      dxy     :     0.006069
 26 H s       :     0.930912  s :     0.930912
      pz      :     0.003607  p :     0.020136
      px      :     0.004530
      py      :     0.011999
 27 H s       :     0.949672  s :     0.949672
      pz      :     0.010676  p :     0.023083
      px      :     0.005584
      py      :     0.006823
 28 C s       :     3.000271  s :     3.000271
      pz      :     0.965419  p :     2.998736
      px      :     1.023579
      py      :     1.009738
      dz2     :     0.009379  d :     0.027391
      dxz     :     0.002332
      dyz     :     0.005496
      dx2y2   :     0.007041
      dxy     :     0.003143
 29 H s       :     0.940661  s :     0.940661
      pz      :     0.004506  p :     0.023566
      px      :     0.006643
      py      :     0.012418
 30 H s       :     0.946044  s :     0.946044
      pz      :     0.011973  p :     0.024733
      px      :     0.006547
      py      :     0.006212
 31 H s       :     0.945126  s :     0.945126
      pz      :     0.005137  p :     0.024873
      px      :     0.014506
      py      :     0.005230
 32 H s       :     0.903230  s :     0.903230
      pz      :     0.002895  p :     0.021682
      px      :     0.005612
      py      :     0.013175
 33 H s       :     0.900637  s :     0.900637
      pz      :     0.008883  p :     0.022388
      px      :     0.007612
      py      :     0.005893


                     *******************************
                     * LOEWDIN POPULATION ANALYSIS *
                     *******************************

----------------------
LOEWDIN ATOMIC CHARGES
----------------------
   0 S :    0.401863
   1 C :   -0.205705
   2 C :   -0.063714
   3 C :   -0.075924
   4 C :   -0.192842
   5 H :    0.033003
   6 C :   -0.024090
   7 H :    0.026156
   8 H :    0.031518
   9 C :   -0.033664
  10 H :    0.025333
  11 H :    0.024140
  12 C :   -0.078448
  13 H :    0.025177
  14 H :    0.027040
  15 H :    0.034071
  16 S :    0.381609
  17 C :   -0.190886
  18 C :   -0.070648
  19 C :   -0.061700
  20 C :   -0.171983
  21 H :    0.033324
  22 C :   -0.043757
  23 H :    0.031702
  24 H :    0.035935
  25 C :   -0.045719
  26 H :    0.032133
  27 H :    0.023768
  28 C :   -0.067116
  29 H :    0.029032
  30 H :    0.024572
  31 H :    0.028066
  32 H :    0.035714
  33 H :    0.042038

-------------------------------
LOEWDIN REDUCED ORBITAL CHARGES
-------------------------------
  0 S s       :     5.510276  s :     5.510276
      pz      :     3.420244  p :     9.955977
      px      :     3.545218
      py      :     2.990514
      dz2     :     0.017017  d :     0.131884
      dxz     :     0.013707
      dyz     :     0.049428
      dx2y2   :     0.018019
      dxy     :     0.033713
  1 C s       :     2.962141  s :     2.962141
      pz      :     1.034695  p :     3.166352
      px      :     1.092455
      py      :     1.039202
      dz2     :     0.020556  d :     0.077212
      dxz     :     0.012977
      dyz     :     0.025198
      dx2y2   :     0.008504
      dxy     :     0.009977
  2 C s       :     2.860144  s :     2.860144
      pz      :     1.048856  p :     3.093471
      px      :     0.974243
      py      :     1.070372
      dz2     :     0.028508  d :     0.110098
      dxz     :     0.013457
      dyz     :     0.037430
      dx2y2   :     0.014346
      dxy     :     0.016357
  3 C s       :     2.872318  s :     2.872318
      pz      :     1.035682  p :     3.112198
      px      :     1.034479
      py      :     1.042037
      dz2     :     0.024345  d :     0.091408
      dxz     :     0.010345
      dyz     :     0.029840
      dx2y2   :     0.013853
      dxy     :     0.013024
  4 C s       :     2.919108  s :     2.919108
      pz      :     1.076799  p :     3.172179
      px      :     1.077658
      py      :     1.017721
      dz2     :     0.023409  d :     0.101556
      dxz     :     0.012706
      dyz     :     0.035418
      dx2y2   :     0.012638
      dxy     :     0.017385
  5 H s       :     0.901823  s :     0.901823
      pz      :     0.022160  p :     0.065174
      px      :     0.015739
      py      :     0.027275
  6 C s       :     2.816082  s :     2.816082
      pz      :     1.009987  p :     3.118641
      px      :     1.051871
      py      :     1.056783
      dz2     :     0.018347  d :     0.089367
      dxz     :     0.016578
      dyz     :     0.023070
      dx2y2   :     0.007931
      dxy     :     0.023441
  7 H s       :     0.897553  s :     0.897553
      pz      :     0.015551  p :     0.076291
      px      :     0.032002
      py      :     0.028737
  8 H s       :     0.899344  s :     0.899344
      pz      :     0.022556  p :     0.069138
      px      :     0.018010
      py      :     0.028572
  9 C s       :     2.834356  s :     2.834356
      pz      :     1.023143  p :     3.111369
      px      :     1.031595
      py      :     1.056631
      dz2     :     0.010825  d :     0.087939
      dxz     :     0.025423
      dyz     :     0.021840
      dx2y2   :     0.006597
      dxy     :     0.023255
 10 H s       :     0.912294  s :     0.912294
      pz      :     0.021306  p :     0.062373
      px      :     0.020969
      py      :     0.020098
 11 H s       :     0.904015  s :     0.904015
      pz      :     0.019042  p :     0.071845
      px      :     0.023709
      py      :     0.029093
 12 C s       :     2.852832  s :     2.852832
      pz      :     1.034966  p :     3.154752
      px      :     1.061507
      py      :     1.058279
      dz2     :     0.009732  d :     0.070864
      dxz     :     0.018469
      dyz     :     0.019315
      dx2y2   :     0.002774
      dxy     :     0.020574
 13 H s       :     0.909477  s :     0.909477
      pz      :     0.023537  p :     0.065346
      px      :     0.019759
      py      :     0.022050
 14 H s       :     0.911370  s :     0.911370
      pz      :     0.011983  p :     0.061589
      px      :     0.023962
      py      :     0.025645
 15 H s       :     0.907551  s :     0.907551
      pz      :     0.020330  p :     0.058378
      px      :     0.022428
      py      :     0.015620
 16 S s       :     5.529182  s :     5.529182
      pz      :     3.259977  p :     9.965531
      px      :     3.511797
      py      :     3.193757
      dz2     :     0.034874  d :     0.123677
      dxz     :     0.023876
      dyz     :     0.015500
      dx2y2   :     0.034076
      dxy     :     0.015351
 17 C s       :     2.950092  s :     2.950092
      pz      :     1.094789  p :     3.161761
      px      :     1.077650
      py      :     0.989323
      dz2     :     0.021713  d :     0.079033
      dxz     :     0.011227
      dyz     :     0.020327
      dx2y2   :     0.014109
      dxy     :     0.011658
 18 C s       :     2.875518  s :     2.875518
      pz      :     1.047669  p :     3.102642
      px      :     1.013849
      py      :     1.041124
      dz2     :     0.025603  d :     0.092488
      dxz     :     0.016425
      dyz     :     0.025834
      dx2y2   :     0.015418
      dxy     :     0.009208
 19 C s       :     2.865212  s :     2.865212
      pz      :     1.037208  p :     3.092646
      px      :     1.006351
      py      :     1.049087
      dz2     :     0.021896  d :     0.103842
      dxz     :     0.014638
      dyz     :     0.032740
      dx2y2   :     0.018574
      dxy     :     0.015994
 20 C s       :     2.925057  s :     2.925057
      pz      :     1.020721  p :     3.149997
      px      :     1.054315
      py      :     1.074961
      dz2     :     0.022084  d :     0.096928
      dxz     :     0.013094
      dyz     :     0.023399
      dx2y2   :     0.020644
      dxy     :     0.017708
 21 H s       :     0.899299  s :     0.899299
      pz      :     0.011180  p :     0.067377
      px      :     0.014363
      py      :     0.041834
 22 C s       :     2.843471  s :     2.843471
      pz      :     1.019170  p :     3.113463
      px      :     1.033895
      py      :     1.060398
      dz2     :     0.024117  d :     0.086823
      dxz     :     0.016925
      dyz     :     0.013849
      dx2y2   :     0.016672
      dxy     :     0.015260
 23 H s       :     0.902951  s :     0.902951
      pz      :     0.012269  p :     0.065347
      px      :     0.017585
      py      :     0.035492
 24 H s       :     0.904132  s :     0.904132
      pz      :     0.026880  p :     0.059934
      px      :     0.015050
      py      :     0.018003
 25 C s       :     2.855937  s :     2.855937
      pz      :     1.036969  p :     3.108023
      px      :     1.011168
      py      :     1.059886
      dz2     :     0.019666  d :     0.081760
      dxz     :     0.013704
      dyz     :     0.016289
      dx2y2   :     0.018889
      dxy     :     0.013211
 26 H s       :     0.910721  s :     0.910721
      pz      :     0.010069  p :     0.057146
      px      :     0.014166
      py      :     0.032911
 27 H s       :     0.905846  s :     0.905846
      pz      :     0.032446  p :     0.070387
      px      :     0.017945
      py      :     0.019996
 28 C s       :     2.830004  s :     2.830004
      pz      :     1.030726  p :     3.167217
      px      :     1.075982
      py      :     1.060509
      dz2     :     0.023267  d :     0.069894
      dxz     :     0.005659
      dyz     :     0.015098
      dx2y2   :     0.017459
      dxy     :     0.008411
 29 H s       :     0.904644  s :     0.904644
      pz      :     0.012602  p :     0.066324
      px      :     0.017823
      py      :     0.035899
 30 H s       :     0.905740  s :     0.905740
      pz      :     0.034917  p :     0.069688
      px      :     0.016587
      py      :     0.018184
 31 H s       :     0.902246  s :     0.902246
      pz      :     0.014756  p :     0.069688
      px      :     0.040416
      py      :     0.014516
 32 H s       :     0.896404  s :     0.896404
      pz      :     0.010596  p :     0.067882
      px      :     0.017501
      py      :     0.039786
 33 H s       :     0.889580  s :     0.889580
      pz      :     0.025457  p :     0.068382
      px      :     0.023368
      py      :     0.019556


                      *****************************
                      * MAYER POPULATION ANALYSIS *
                      *****************************

  NA   - Mulliken gross atomic population
  ZA   - Total nuclear charge
  QA   - Mulliken gross atomic charge
  VA   - Mayer's total valence
  BVA  - Mayer's bonded valence
  FA   - Mayer's free valence

  ATOM       NA         ZA         QA         VA         BVA        FA
  0 S     15.9226    16.0000     0.0774     2.5242     2.5242    -0.0000
  1 C      6.1235     6.0000    -0.1235     3.8240     3.8240    -0.0000
  2 C      6.0991     6.0000    -0.0991     4.0572     4.0572     0.0000
  3 C      6.0187     6.0000    -0.0187     3.9308     3.9308     0.0000
  4 C      6.1020     6.0000    -0.1020     3.9178     3.9178     0.0000
  5 H      0.9833     1.0000     0.0167     1.0073     1.0073     0.0000
  6 C      5.9250     6.0000     0.0750     3.9513     3.9513    -0.0000
  7 H      0.9773     1.0000     0.0227     0.9977     0.9977    -0.0000
  8 H      0.9865     1.0000     0.0135     0.9919     0.9919    -0.0000
  9 C      6.0273     6.0000    -0.0273     4.0562     4.0562     0.0000
 10 H      0.9660     1.0000     0.0340     0.9843     0.9843     0.0000
 11 H      0.9709     1.0000     0.0291     0.9768     0.9768    -0.0000
 12 C      6.0985     6.0000    -0.0985     4.0031     4.0031     0.0000
 13 H      0.9723     1.0000     0.0277     0.9849     0.9849     0.0000
 14 H      0.9622     1.0000     0.0378     0.9879     0.9879     0.0000
 15 H      0.9539     1.0000     0.0461     0.9815     0.9815     0.0000
 16 S     15.9176    16.0000     0.0824     2.4707     2.4707     0.0000
 17 C      6.0970     6.0000    -0.0970     3.8485     3.8485     0.0000
 18 C      6.0406     6.0000    -0.0406     3.9781     3.9781     0.0000
 19 C      6.0543     6.0000    -0.0543     4.0152     4.0152     0.0000
 20 C      6.1073     6.0000    -0.1073     3.9323     3.9323     0.0000
 21 H      0.9705     1.0000     0.0295     0.9947     0.9947     0.0000
 22 C      5.9947     6.0000     0.0053     3.9481     3.9481    -0.0000
 23 H      0.9833     1.0000     0.0167     0.9960     0.9960    -0.0000
 24 H      0.9479     1.0000     0.0521     0.9810     0.9810    -0.0000
 25 C      6.0942     6.0000    -0.0942     4.0475     4.0475     0.0000
 26 H      0.9510     1.0000     0.0490     0.9857     0.9857     0.0000
 27 H      0.9728     1.0000     0.0272     0.9787     0.9787    -0.0000
 28 C      6.0264     6.0000    -0.0264     3.9880     3.9880    -0.0000
 29 H      0.9642     1.0000     0.0358     0.9912     0.9912     0.0000
 30 H      0.9708     1.0000     0.0292     0.9904     0.9904     0.0000
 31 H      0.9700     1.0000     0.0300     0.9872     0.9872    -0.0000
 32 H      0.9249     1.0000     0.0751     0.9930     0.9930    -0.0000
 33 H      0.9230     1.0000     0.0770     0.9914     0.9914     0.0000

  Mayer bond orders larger than 0.100000
B(  0-S ,  1-C ) :   1.1540 B(  0-S ,  4-C ) :   1.1657 B(  1-C ,  2-C ) :   1.5619 
B(  1-C ,  4-C ) :   0.1054 B(  1-C , 32-H ) :   0.9545 B(  2-C ,  3-C ) :   1.3272 
B(  2-C ,  6-C ) :   1.0183 B(  3-C ,  4-C ) :   1.5065 B(  3-C ,  5-H ) :   0.9743 
B(  4-C , 20-C ) :   1.0955 B(  6-C ,  7-H ) :   0.9437 B(  6-C ,  8-H ) :   0.9345 
B(  6-C ,  9-C ) :   1.0574 B(  9-C , 10-H ) :   0.9590 B(  9-C , 11-H ) :   0.9534 
B(  9-C , 12-C ) :   1.0747 B( 12-C , 13-H ) :   0.9726 B( 12-C , 14-H ) :   0.9757 
B( 12-C , 15-H ) :   0.9723 B( 16-S , 17-C ) :   1.1317 B( 16-S , 20-C ) :   1.1452 
B( 17-C , 18-C ) :   1.6325 B( 17-C , 33-H ) :   0.9583 B( 18-C , 19-C ) :   1.2638 
B( 18-C , 21-H ) :   0.9699 B( 19-C , 20-C ) :   1.5417 B( 19-C , 22-C ) :   1.0457 
B( 22-C , 23-H ) :   0.9301 B( 22-C , 24-H ) :   0.9349 B( 22-C , 25-C ) :   1.0502 
B( 25-C , 26-H ) :   0.9534 B( 25-C , 27-H ) :   0.9512 B( 25-C , 28-C ) :   1.0726 
B( 28-C , 29-H ) :   0.9744 B( 28-C , 30-H ) :   0.9755 B( 28-C , 31-H ) :   0.9735 


-------
TIMINGS
-------

Total SCF time: 0 days 0 hours 0 min 19 sec 

Total time                  ....      19.234 sec
Sum of individual times     ....      18.369 sec  ( 95.5%)

Fock matrix formation       ....      16.744 sec  ( 87.1%)
  XC integration            ....       1.463 sec  (  8.7% of F)
    Basis function eval.    ....       0.130 sec  (  8.9% of XC)
    Density eval.           ....       0.094 sec  (  6.4% of XC)
    XC-Functional eval.     ....       0.116 sec  (  7.9% of XC)
    XC-Potential eval.      ....       0.105 sec  (  7.1% of XC)
Diagonalization             ....       0.137 sec  (  0.7%)
Density matrix formation    ....       0.022 sec  (  0.1%)
Population analysis         ....       0.054 sec  (  0.3%)
Initial guess               ....       0.168 sec  (  0.9%)
Orbital Transformation      ....       0.000 sec  (  0.0%)
Orbital Orthonormalization  ....       0.000 sec  (  0.0%)
DIIS solution               ....       0.151 sec  (  0.8%)
SOSCF solution              ....       0.127 sec  (  0.7%)
Grid generation             ....       0.966 sec  (  5.0%)


-------------------------------------------------------------------------------
                          DFT DISPERSION CORRECTION                            
                                                                               
                              DFTD3 V3.1  Rev 1                                
                              USING zero damping                               
-------------------------------------------------------------------------------
The omegaB97X-D3 functional is recognized. Fit by Chai et al.
Active option DFTDOPT                   ...         3   

molecular C6(AA) [au] = 14213.820817 


            DFT-D V3
 parameters
 s6 scaling factor         :     1.0000 
 rs6 scaling factor        :     1.2810 
 s8 scaling factor         :     1.0000 
 rs8 scaling factor        :     1.0940 
 Damping factor alpha6     :    14.0000 
 Damping factor alpha8     :    16.0000 
 ad hoc parameters k1-k3   :    16.0000     1.3333    -4.0000 

 Edisp/kcal,au: -8.503107822814  -0.013550563405 
 E6   /kcal   :  -3.868183426 
 E8   /kcal   :  -4.634924397 
 % E8         :  54.508592551 

-------------------------   ----------------
Dispersion correction           -0.013550563
-------------------------   ----------------


-------------------------   --------------------
FINAL SINGLE POINT ENERGY     -1339.859841926067
-------------------------   --------------------


                            ***************************************
                            *     ORCA property calculations      *
                            ***************************************

                                    ---------------------
                                    Active property flags
                                    ---------------------
   (+) Dipole Moment


------------------------------------------------------------------------------
                       ORCA ELECTRIC PROPERTIES CALCULATION
------------------------------------------------------------------------------

Dipole Moment Calculation                       ... on
Quadrupole Moment Calculation                   ... off
Polarizability Calculation                      ... off
GBWName                                         ... config_3174.gbw
Electron density file                           ... config_3174.scfp
The origin for moment calculation is the CENTER OF MASS  = (-202.772858, 71.069891 -22.652395)

-------------
DIPOLE MOMENT
-------------
                                X             Y             Z
Electronic contribution:      9.29376       1.48312      29.89503
Nuclear contribution   :     -9.21656      -1.78321     -30.68054
                        -----------------------------------------
Total Dipole Moment    :      0.07720      -0.30009      -0.78551
                        -----------------------------------------
Magnitude (a.u.)       :      0.84442
Magnitude (Debye)      :      2.14634



--------------------
Rotational spectrum 
--------------------
 
Rotational constants in cm-1:     0.017623     0.008454     0.006109 
Rotational constants in MHz :   528.315860   253.429717   183.130212 

 Dipole components along the rotational axes: 
x,y,z [a.u.] :    -0.213302     0.710083    -0.404137 
x,y,z [Debye]:    -0.542170     1.804888    -1.027235 

 

Timings for individual modules:

Sum of individual times         ...       20.377 sec (=   0.340 min)
GTO integral calculation        ...        0.786 sec (=   0.013 min)   3.9 %
SCF iterations                  ...       19.591 sec (=   0.327 min)  96.1 %
                             ****ORCA TERMINATED NORMALLY****
TOTAL RUN TIME: 0 days 0 hours 0 minutes 21 seconds 54 msec
