
                                 *****************
                                 * O   R   C   A *
                                 *****************

           --- An Ab Initio, DFT and Semiempirical electronic structure package ---

                  #######################################################
                  #                        -***-                        #
                  #          Department of theory and spectroscopy      #
                  #               Directorship: Frank Neese             #
                  #        Max Planck Institute fuer Kohlenforschung    #
                  #                Kaiser Wilhelm Platz 1               #
                  #                 D-45470 Muelheim/Ruhr               #
                  #                      Germany                        #
                  #                                                     #
                  #                  All rights reserved                #
                  #                        -***-                        #
                  #######################################################


                         Program Version 4.2.1 -  RELEASE  -


 With contributions from (in alphabetic order):
   Daniel Aravena         : Magnetic Suceptibility
   Michael Atanasov       : Ab Initio Ligand Field Theory (pilot matlab implementation)
   Alexander A. Auer      : GIAO ZORA, VPT2
   Ute Becker             : Parallelization
   Giovanni Bistoni       : ED, misc. LED, open-shell LED, HFLD
   Martin Brehm           : Molecular dynamics
   Dmytro Bykov           : SCF Hessian
   Vijay G. Chilkuri      : MRCI spin determinant printing, contributions to CSF-ICE
   Dipayan Datta          : RHF DLPNO-CCSD density
   Achintya Kumar Dutta   : EOM-CC, STEOM-CC
   Dmitry Ganyushin       : Spin-Orbit,Spin-Spin,Magnetic field MRCI
   Miquel Garcia          : C-PCM Hessian, Gaussian charge scheme
   Yang Guo               : DLPNO-NEVPT2, CIM, IAO-localization
   Andreas Hansen         : Spin unrestricted coupled pair/coupled cluster methods
   Benjamin Helmich-Paris : CASSCF linear response (MC-RPA)
   Lee Huntington         : MR-EOM, pCC
   Robert Izsak           : Overlap fitted RIJCOSX, COSX-SCS-MP3, EOM
   Christian Kollmar      : KDIIS, OOCD, Brueckner-CCSD(T), CCSD density
   Simone Kossmann        : Meta GGA functionals, TD-DFT gradient, OOMP2, MP2 Hessian
   Martin Krupicka        : AUTO-CI
   Lucas Lang             : DCDCAS
   Dagmar Lenk            : GEPOL surface, SMD
   Dimitrios Liakos       : Extrapolation schemes; Compound Job, initial MDCI parallelization
   Dimitrios Manganas     : Further ROCIS development; embedding schemes
   Dimitrios Pantazis     : SARC Basis sets
   Taras Petrenko         : DFT Hessian,TD-DFT gradient, ASA, ECA, R-Raman, ABS, FL, XAS/XES, NRVS
   Peter Pinski           : DLPNO-MP2, DLPNO-MP2 Gradient
   Christoph Reimann      : Effective Core Potentials
   Marius Retegan         : Local ZFS, SOC
   Christoph Riplinger    : Optimizer, TS searches, QM/MM, DLPNO-CCSD(T), (RO)-DLPNO pert. Triples
   Tobias Risthaus        : Range-separated hybrids, TD-DFT gradient, RPA, STAB
   Michael Roemelt        : Original ROCIS implementation
   Masaaki Saitow         : Open-shell DLPNO-CCSD energy and density
   Barbara Sandhoefer     : DKH picture change effects
   Avijit Sen             : IP-ROCIS
   Kantharuban Sivalingam : CASSCF convergence, NEVPT2, FIC-MRCI
   Bernardo de Souza      : ESD, SOC TD-DFT
   Georgi Stoychev        : AutoAux, RI-MP2 NMR
   Willem Van den Heuvel  : Paramagnetic NMR
   Boris Wezisla          : Elementary symmetry handling
   Frank Wennmohs         : Technical directorship


 We gratefully acknowledge several colleagues who have allowed us to
 interface, adapt or use parts of their codes:
   Stefan Grimme, W. Hujo, H. Kruse,             : VdW corrections, initial TS optimization,
                  C. Bannwarth                     DFT functionals, gCP, sTDA/sTD-DF
   Ed Valeev, F. Pavosevic, A. Kumar             : LibInt (2-el integral package), F12 methods
   Garnet Chan, S. Sharma, J. Yang, R. Olivares  : DMRG
   Ulf Ekstrom                                   : XCFun DFT Library
   Mihaly Kallay                                 : mrcc  (arbitrary order and MRCC methods)
   Andreas Klamt, Michael Diedenhofen            : otool_cosmo (COSMO solvation model)
   Jiri Pittner, Ondrej Demel                    : Mk-CCSD
   Frank Weinhold                                : gennbo (NPA and NBO analysis)
   Christopher J. Cramer and Donald G. Truhlar   : smd solvation model
   Lars Goerigk                                  : TD-DFT with DH, B97 family of functionals
   V. Asgeirsson, H. Jonsson                     : NEB implementation
   FAccTs GmbH                                   : IRC, NEB, NEB-TS, Multilevel, MM, QM/MM, CI optimization
   S Lehtola, MJT Oliveira, MAL Marques          : LibXC Library


 Your calculation uses the libint2 library for the computation of 2-el integrals
 For citations please refer to: http://libint.valeyev.net

 Your ORCA version has been built with support for libXC version: 4.2.3
 For citations please refer to: https://tddft.org/programs/libxc/

 This ORCA versions uses:
   CBLAS   interface :  Fast vector & matrix operations
   LAPACKE interface :  Fast linear algebra routines
   SCALAPACK package :  Parallel linear algebra routines


Your calculation utilizes the atom-pairwise dispersion correction
with the zero-damping scheme (D30)
Cite in your paper:
S.Grimme, J.Antony, S.Ehrlich and H.Krieg, J.Chem.Phys., 132, (2010), 154104 
   

XCFun DFT library Copyright 2009-2010 Ulf Ekstrom and contributors.
See http://admol.org/xcfun for more information. This is free soft-
ware; see the source code for copying conditions. There is ABSOLUTELY
NO WARRANTY; not even for MERCHANTABILITY or FITNESS FOR A PARTICULAR
PURPOSE. For details see the documentation. Scientific users of this 
library should cite U. Ekstrom, L. Visscher, R. Bast, A. J. Thorvald-
sen and K. Ruud; J.Chem.Theor.Comp. 2010, DOI: 10.1021/ct100117s
XCFun Version 0.99 
----- Orbital basis set information -----
Your calculation utilizes the basis: def2-SVP
   F. Weigend and R. Ahlrichs, Phys. Chem. Chem. Phys. 7, 3297 (2005).

================================================================================
                                        WARNINGS
                       Please study these warnings very carefully!
================================================================================


INFO   : the flag for use of LIBINT has been found!

================================================================================
                                       INPUT FILE
================================================================================
NAME = config_8937.inp
|  1> ! wB97X-D3 SP def2-SVP
|  2> %pal
|  3> nprocs 24
|  4> end
|  5> 
|  6> * xyz 0 1
|  7> S 	 -4.11264 	 -18.9158 	 -105.948 	 
|  8> C 	 -4.42256 	 -20.2902 	 -104.911 	 
|  9> C 	 -4.67511 	 -19.8403 	 -103.628 	 
| 10> C 	 -4.748 	 -18.3918 	 -103.54 	 
| 11> C 	 -4.60554 	 -17.7502 	 -104.759 	 
| 12> H 	 -4.90933 	 -17.7128 	 -102.679 	 
| 13> C 	 -4.77619 	 -20.8267 	 -102.457 	 
| 14> H 	 -4.78221 	 -21.8392 	 -102.935 	 
| 15> H 	 -5.75157 	 -20.6544 	 -102.002 	 
| 16> C 	 -3.6846 	 -20.6973 	 -101.455 	 
| 17> H 	 -2.70833 	 -21.0732 	 -101.837 	 
| 18> H 	 -3.534 	 -19.6665 	 -101.196 	 
| 19> C 	 -3.94831 	 -21.4678 	 -100.175 	 
| 20> H 	 -4.02351 	 -22.5028 	 -100.303 	 
| 21> H 	 -3.18783 	 -21.2938 	 -99.4165 	 
| 22> H 	 -4.93903 	 -21.1823 	 -99.7514 	 
| 23> S 	 -2.64975 	 -15.7554 	 -105.003 	 
| 24> C 	 -3.11789 	 -14.1279 	 -105.224 	 
| 25> C 	 -4.4865 	 -13.9936 	 -105.094 	 
| 26> C 	 -5.17362 	 -15.2103 	 -104.963 	 
| 27> C 	 -4.31659 	 -16.3314 	 -104.988 	 
| 28> H 	 -4.80492 	 -12.9382 	 -105.024 	 
| 29> C 	 -6.65486 	 -15.2271 	 -104.807 	 
| 30> H 	 -6.94939 	 -16.1732 	 -105.268 	 
| 31> H 	 -7.08955 	 -14.3212 	 -105.316 	 
| 32> C 	 -7.28925 	 -15.1925 	 -103.356 	 
| 33> H 	 -6.97744 	 -15.9568 	 -102.595 	 
| 34> H 	 -8.33942 	 -15.4006 	 -103.369 	 
| 35> C 	 -6.83461 	 -13.8915 	 -102.723 	 
| 36> H 	 -5.85773 	 -13.9763 	 -102.318 	 
| 37> H 	 -7.42686 	 -13.6618 	 -101.83 	 
| 38> H 	 -6.87553 	 -13.053 	 -103.459 	 
| 39> H 	 -4.41334 	 -21.3038 	 -105.175 	 
| 40> H 	 -2.45526 	 -13.2186 	 -105.322 	 
| 41> *
| 42> 
| 43>                          ****END OF INPUT****
================================================================================

                       ****************************
                       * Single Point Calculation *
                       ****************************

---------------------------------
CARTESIAN COORDINATES (ANGSTROEM)
---------------------------------
  S     -4.112640  -18.915800  -105.948000
  C     -4.422560  -20.290200  -104.911000
  C     -4.675110  -19.840300  -103.628000
  C     -4.748000  -18.391800  -103.540000
  C     -4.605540  -17.750200  -104.759000
  H     -4.909330  -17.712800  -102.679000
  C     -4.776190  -20.826700  -102.457000
  H     -4.782210  -21.839200  -102.935000
  H     -5.751570  -20.654400  -102.002000
  C     -3.684600  -20.697300  -101.455000
  H     -2.708330  -21.073200  -101.837000
  H     -3.534000  -19.666500  -101.196000
  C     -3.948310  -21.467800  -100.175000
  H     -4.023510  -22.502800  -100.303000
  H     -3.187830  -21.293800  -99.416500
  H     -4.939030  -21.182300  -99.751400
  S     -2.649750  -15.755400  -105.003000
  C     -3.117890  -14.127900  -105.224000
  C     -4.486500  -13.993600  -105.094000
  C     -5.173620  -15.210300  -104.963000
  C     -4.316590  -16.331400  -104.988000
  H     -4.804920  -12.938200  -105.024000
  C     -6.654860  -15.227100  -104.807000
  H     -6.949390  -16.173200  -105.268000
  H     -7.089550  -14.321200  -105.316000
  C     -7.289250  -15.192500  -103.356000
  H     -6.977440  -15.956800  -102.595000
  H     -8.339420  -15.400600  -103.369000
  C     -6.834610  -13.891500  -102.723000
  H     -5.857730  -13.976300  -102.318000
  H     -7.426860  -13.661800  -101.830000
  H     -6.875530  -13.053000  -103.459000
  H     -4.413340  -21.303800  -105.175000
  H     -2.455260  -13.218600  -105.322000

----------------------------
CARTESIAN COORDINATES (A.U.)
----------------------------
  NO LB      ZA    FRAG     MASS         X           Y           Z
   0 S    16.0000    0    32.060   -7.771763  -35.745682  -200.212704
   1 C     6.0000    0    12.011   -8.357427  -38.342921  -198.253058
   2 C     6.0000    0    12.011   -8.834678  -37.492733  -195.828540
   3 C     6.0000    0    12.011   -8.972420  -34.755465  -195.662244
   4 C     6.0000    0    12.011   -8.703209  -33.543017  -197.965820
   5 H     1.0000    0     1.008   -9.277289  -33.472341  -194.035190
   6 C     6.0000    0    12.011   -9.025691  -39.356759  -193.615671
   7 H     1.0000    0     1.008   -9.037067  -41.270107  -194.518960
   8 H     1.0000    0     1.008  -10.868892  -39.031159  -192.755845
   9 C     6.0000    0    12.011   -6.962885  -39.112229  -191.722165
  10 H     1.0000    0     1.008   -5.118002  -39.822577  -192.444040
  11 H     1.0000    0     1.008   -6.678292  -37.164299  -191.232726
  12 C     6.0000    0    12.011   -7.461225  -40.568263  -189.303315
  13 H     1.0000    0     1.008   -7.603332  -42.524129  -189.545200
  14 H     1.0000    0     1.008   -6.024126  -40.239450  -187.869958
  15 H     1.0000    0     1.008   -9.333414  -40.028746  -188.502827
  16 S    16.0000    0    32.060   -5.007302  -29.773391  -198.426913
  17 C     6.0000    0    12.011   -5.891958  -26.697862  -198.844543
  18 C     6.0000    0    12.011   -8.478256  -26.444072  -198.598878
  19 C     6.0000    0    12.011   -9.776725  -28.743301  -198.351324
  20 C     6.0000    0    12.011   -8.157173  -30.861873  -198.398567
  21 H     1.0000    0     1.008   -9.079983  -24.449655  -198.466597
  22 C     6.0000    0    12.011  -12.575863  -28.775049  -198.056527
  23 H     1.0000    0     1.008  -13.132444  -30.562919  -198.927691
  24 H     1.0000    0     1.008  -13.397308  -27.063146  -199.018398
  25 C     6.0000    0    12.011  -13.774686  -28.709664  -195.314534
  26 H     1.0000    0     1.008  -13.185451  -30.153982  -193.876453
  27 H     1.0000    0     1.008  -15.759220  -29.102916  -195.339101
  28 C     6.0000    0    12.011  -12.915541  -26.251131  -194.118338
  29 H     1.0000    0     1.008  -11.069505  -26.411379  -193.352999
  30 H     1.0000    0     1.008  -14.034731  -25.817060  -192.430812
  31 H     1.0000    0     1.008  -12.992869  -24.666595  -195.509176
  32 H     1.0000    0     1.008   -8.340004  -40.258348  -198.751946
  33 H     1.0000    0     1.008   -4.639769  -24.979534  -199.029736

--------------------------------
INTERNAL COORDINATES (ANGSTROEM)
--------------------------------
 S      0   0   0     0.000000000000     0.00000000     0.00000000
 C      1   0   0     1.749398401280     0.00000000     0.00000000
 C      2   1   0     1.382852310444   109.07008654     0.00000000
 C      3   2   1     1.453000069546   112.93503956     5.93458222
 C      4   3   2     1.384884981361   113.78980921     2.47117827
 H      4   3   2     1.108327284199   131.68914264   181.56061435
 C      3   2   1     1.534419475372   120.72609600   189.12409122
 H      7   3   2     1.119676958055   104.82521154   350.68016216
 H      7   3   2     1.089990107478   106.01552626   236.07137595
 C      7   3   2     1.487385991631   114.19469434   113.27951309
 H     10   7   3     1.113700104561   112.51367549   287.93357256
 H     10   7   3     1.073457032209   110.42876240    46.77045177
 C     10   7   3     1.517106856520   113.36737285   168.07328536
 H     13  10   7     1.045592674037   114.32707938    62.61448124
 H     13  10   7     1.088084592484   112.67126048   185.18865828
 H     13  10   7     1.114662876569   110.18455338   306.36388237
 S      5   4   3     2.804260609162   118.54765549   233.67659206
 C     17   5   4     1.707850201159   119.86538876   247.68630609
 C     18  17   5     1.381314526855   110.61355344     7.15114462
 C     19  18  17     1.403443545142   114.17897059   353.41342950
 C     20  19  18     1.411378982024   112.93491580     0.14560699
 H     19  18  17     1.104608734530   112.61100555   168.25943836
 C     20  19  18     1.489526830104   120.42604150   179.68962969
 H     23  20  19     1.092874252099   103.50834133   149.82077123
 H     23  20  19     1.126361933883   109.10970277    28.46311289
 C     23  20  19     1.583997737404   119.60135742   269.04507468
 H     26  23  20     1.122720341893   119.65698723   305.79500892
 H     26  23  20     1.070668781136   112.17664688   191.18659426
 C     26  23  20     1.516570977436   106.32108201    61.13007884
 H     29  26  23     1.060900831558   111.51889293   277.97759692
 H     29  26  23     1.095888293806   110.97206224   165.32279785
 H     29  26  23     1.116446459263   110.98617839    41.27291113
 H      2   1   3     1.047456905271   127.53784942   180.89589341
 H     18  17   5     1.129384348617   128.14491280   178.99888097

---------------------------
INTERNAL COORDINATES (A.U.)
---------------------------
 S      0   0   0     0.000000000000     0.00000000     0.00000000
 C      1   0   0     3.305883877538     0.00000000     0.00000000
 C      2   1   0     2.613212150399   109.07008654     0.00000000
 C      3   2   1     2.745772204010   112.93503956     5.93458222
 C      4   3   2     2.617053341753   113.78980921     2.47117827
 H      4   3   2     2.094435033889   131.68914264   181.56061435
 C      3   2   1     2.899632583008   120.72609600   189.12409122
 H      7   3   2     2.115882809187   104.82521154   350.68016216
 H      7   3   2     2.059782791817   106.01552626   236.07137595
 C      7   3   2     2.810752179613   114.19469434   113.27951309
 H     10   7   3     2.104588192940   112.51367549   287.93357256
 H     10   7   3     2.028539807408   110.42876240    46.77045177
 C     10   7   3     2.866916474717   113.36737285   168.07328536
 H     13  10   7     1.975883801564   114.32707938    62.61448124
 H     13  10   7     2.056181890333   112.67126048   185.18865828
 H     13  10   7     2.106407568363   110.18455338   306.36388237
 S      5   4   3     5.299284559460   118.54765549   233.67659206
 C     17   5   4     3.227369157953   119.86538876   247.68630609
 C     18  17   5     2.610306160563   110.61355344     7.15114462
 C     19  18  17     2.652123944737   114.17897059   353.41342950
 C     20  19  18     2.667119747199   112.93491580     0.14560699
 H     19  18  17     2.087407993399   112.61100555   168.25943836
 C     20  19  18     2.814797778025   120.42604150   179.68962969
 H     23  20  19     2.065233035280   103.50834133   149.82077123
 H     23  20  19     2.128515582712   109.10970277    28.46311289
 C     23  20  19     2.993321920444   119.60135742   269.04507468
 H     26  23  20     2.121633971160   119.65698723   305.79500892
 H     26  23  20     2.023270776487   112.17664688   191.18659426
 C     26  23  20     2.865903810007   106.32108201    61.13007884
 H     29  26  23     2.004812026894   111.51889293   277.97759692
 H     29  26  23     2.070928748663   110.97206224   165.32279785
 H     29  26  23     2.109778051192   110.98617839    41.27291113
 H      2   1   3     1.979406688047   127.53784942   180.89589341
 H     18  17   5     2.134227118822   128.14491280   178.99888097

---------------------
BASIS SET INFORMATION
---------------------
There are 3 groups of distinct atoms

 Group   1 Type S   : 10s7p1d contracted to 4s3p1d pattern {5311/511/1}
 Group   2 Type C   : 7s4p1d contracted to 3s2p1d pattern {511/31/1}
 Group   3 Type H   : 4s1p contracted to 2s1p pattern {31/1}

Atom   0S    basis set group =>   1
Atom   1C    basis set group =>   2
Atom   2C    basis set group =>   2
Atom   3C    basis set group =>   2
Atom   4C    basis set group =>   2
Atom   5H    basis set group =>   3
Atom   6C    basis set group =>   2
Atom   7H    basis set group =>   3
Atom   8H    basis set group =>   3
Atom   9C    basis set group =>   2
Atom  10H    basis set group =>   3
Atom  11H    basis set group =>   3
Atom  12C    basis set group =>   2
Atom  13H    basis set group =>   3
Atom  14H    basis set group =>   3
Atom  15H    basis set group =>   3
Atom  16S    basis set group =>   1
Atom  17C    basis set group =>   2
Atom  18C    basis set group =>   2
Atom  19C    basis set group =>   2
Atom  20C    basis set group =>   2
Atom  21H    basis set group =>   3
Atom  22C    basis set group =>   2
Atom  23H    basis set group =>   3
Atom  24H    basis set group =>   3
Atom  25C    basis set group =>   2
Atom  26H    basis set group =>   3
Atom  27H    basis set group =>   3
Atom  28C    basis set group =>   2
Atom  29H    basis set group =>   3
Atom  30H    basis set group =>   3
Atom  31H    basis set group =>   3
Atom  32H    basis set group =>   3
Atom  33H    basis set group =>   3


           ************************************************************
           *        Program running with 24 parallel MPI-processes    *
           *              working on a common directory               *
           ************************************************************
------------------------------------------------------------------------------
                           ORCA GTO INTEGRAL CALCULATION
------------------------------------------------------------------------------

                         BASIS SET STATISTICS AND STARTUP INFO

 # of primitive gaussian shells          ...  294
 # of primitive gaussian functions       ...  534
 # of contracted shells                  ...  154
 # of contracted basis functions         ...  322
 Highest angular momentum                ...    2
 Maximum contraction depth               ...    5
 Integral package used                   ... LIBINT
 Integral threshhold            Thresh   ...  1.000e-10
 Primitive cut-off              TCut     ...  1.000e-11


------------------------------ INTEGRAL EVALUATION ----------------------------


 * One electron integrals 
 Pre-screening matrix                    ... done
 Shell pair data                         ... done (   0.003 sec)



           ************************************************************
           *        Program running with 24 parallel MPI-processes    *
           *              working on a common directory               *
           ************************************************************
-------------------------------------------------------------------------------
                                 ORCA SCF
-------------------------------------------------------------------------------

------------
SCF SETTINGS
------------
Hamiltonian:
 Density Functional     Method          .... DFT(GTOs)
 Exchange Functional    Exchange        .... WB97X-D3
 Correlation Functional Correlation     .... WB97X-D3
 Gradients option       PostSCFGGA      .... off
 Hybrid DFT is turned on
   Fraction HF Exchange ScalHFX         ....  0.195728
   Scaling of DF-GGA-X  ScalDFX         ....  0.000000
   Scaling of DF-GGA-C  ScalDFC         ....  1.000000
   Scaling of DF-LDA-C  ScalLDAC        ....  1.000000
   Perturbative correction              ....  0.000000
   Density functional embedding theory  .... OFF
 Long-range corrected/Screened/Range-Separated Hybrid DFT is turned on
   Amount of maximum screened exact exchange              ....  0.804272
   Range separation parameter mu (erf(mu*r12)/r12)        ....  0.250000


General Settings:
 Integral files         IntName         .... config_8937
 Hartree-Fock type      HFTyp           .... RHF
 Total Charge           Charge          ....    0
 Multiplicity           Mult            ....    1
 Number of Electrons    NEL             ....  134
 Basis Dimension        Dim             ....  322
 Nuclear Repulsion      ENuc            ....   1281.8836743919 Eh

Convergence Acceleration:
 DIIS                   CNVDIIS         .... on
   Start iteration      DIISMaxIt       ....    12
   Startup error        DIISStart       ....  0.200000
   # of expansion vecs  DIISMaxEq       ....     5
   Bias factor          DIISBfac        ....   1.050
   Max. coefficient     DIISMaxC        ....  10.000
 Newton-Raphson         CNVNR           .... off
 SOSCF                  CNVSOSCF        .... on
   Start iteration      SOSCFMaxIt      ....   150
   Startup grad/error   SOSCFStart      ....  0.003300
 Level Shifting         CNVShift        .... on
   Level shift para.    LevelShift      ....    0.2500
   Turn off err/grad.   ShiftErr        ....    0.0010
 Zerner damping         CNVZerner       .... off
 Static damping         CNVDamp         .... on
   Fraction old density DampFac         ....    0.7000
   Max. Damping (<1)    DampMax         ....    0.9800
   Min. Damping (>=0)   DampMin         ....    0.0000
   Turn off err/grad.   DampErr         ....    0.1000
 Fernandez-Rico         CNVRico         .... off

SCF Procedure:
 Maximum # iterations   MaxIter         ....   125
 SCF integral mode      SCFMode         .... Direct
   Integral package                     .... LIBINT
 Reset frequency        DirectResetFreq ....    20
 Integral Threshold     Thresh          ....  1.000e-10 Eh
 Primitive CutOff       TCut            ....  1.000e-11 Eh

Convergence Tolerance:
 Convergence Check Mode ConvCheckMode   .... Total+1el-Energy
 Convergence forced     ConvForced      .... 0
 Energy Change          TolE            ....  1.000e-06 Eh
 1-El. energy change                    ....  1.000e-03 Eh
 Orbital Gradient       TolG            ....  5.000e-05
 Orbital Rotation angle TolX            ....  5.000e-05
 DIIS Error             TolErr          ....  1.000e-06


Diagonalization of the overlap matrix:
Smallest eigenvalue                        ... 6.761e-04
Time for diagonalization                   ...    0.017 sec
Threshold for overlap eigenvalues          ... 1.000e-08
Number of eigenvalues below threshold      ... 0
Time for construction of square roots      ...    0.028 sec
Total time needed                          ...    0.045 sec

-------------------
DFT GRID GENERATION
-------------------

General Integration Accuracy     IntAcc      ...  4.340
Radial Grid Type                 RadialGrid  ... Gauss-Chebyshev
Angular Grid (max. acc.)         AngularGrid ... Lebedev-110
Angular grid pruning method      GridPruning ... 3 (G Style)
Weight generation scheme         WeightScheme... Becke
Basis function cutoff            BFCut       ...    1.0000e-10
Integration weight cutoff        WCut        ...    1.0000e-14
Grids for H and He will be reduced by one unit

# of grid points (after initial pruning)     ...  41088 (   0.0 sec)
# of grid points (after weights+screening)   ...  36964 (   0.0 sec)
nearest neighbour list constructed           ...    0.0 sec
Grid point re-assignment to atoms done       ...    0.0 sec
Grid point division into batches done        ...    0.0 sec
Reduced shell lists constructed in    0.1 sec

Total number of grid points                  ...    36964
Total number of batches                      ...      594
Average number of points per batch           ...       62
Average number of grid points per atom       ...     1087
Average number of shells per batch           ...    69.27 (44.98%)
Average number of basis functions per batch  ...   136.35 (42.34%)
Average number of large shells per batch     ...    43.62 (62.97%)
Average number of large basis fcns per batch ...    90.38 (66.29%)
Maximum spatial batch extension              ...  17.81, 13.36, 13.09 au
Average spatial batch extension              ...   0.20,  0.16,  0.16 au

Time for grid setup =    0.148 sec

------------------------------
INITIAL GUESS: MODEL POTENTIAL
------------------------------
Loading Hartree-Fock densities                     ... done
Calculating cut-offs                               ... done
Setting up the integral package                    ... done
Initializing the effective Hamiltonian             ... done
Starting the Coulomb interaction                   ... done (   0.0 sec)
Reading the grid                                   ... done
Mapping shells                                     ... done
Starting the XC term evaluation                    ... done (   0.0 sec)
  promolecular density results
     # of electrons  =    133.994367829
     EX              =   -126.723359652
     EC              =     -4.620804418
     EX+EC           =   -131.344164070
Transforming the Hamiltonian                       ... done (   0.0 sec)
Diagonalizing the Hamiltonian                      ... done (   0.0 sec)
Back transforming the eigenvectors                 ... done (   0.0 sec)
Now organizing SCF variables                       ... done
                      ------------------
                      INITIAL GUESS DONE (   0.3 sec)
                      ------------------
--------------
SCF ITERATIONS
--------------
ITER       Energy         Delta-E        Max-DP      RMS-DP      [F,P]     Damp
               ***  Starting incremental Fock matrix formation  ***
  0  -1339.4268228030   0.000000000000 0.06648630  0.00153766  0.1671113 0.7000
  1  -1339.6108949875  -0.184072184441 0.04447966  0.00112739  0.1011960 0.7000
                               ***Turning on DIIS***
  2  -1339.7006569137  -0.089761926272 0.09309532  0.00214193  0.0526482 0.0000
  3  -1339.8366467514  -0.135989837690 0.04170324  0.00094036  0.0409594 0.0000
  4  -1339.8652133595  -0.028566608113 0.00771402  0.00020048  0.0080388 0.0000
                      *** Initiating the SOSCF procedure ***
                           *** Shutting down DIIS ***
                      *** Re-Reading the Fockian *** 
                      *** Removing any level shift *** 
ITER      Energy       Delta-E        Grad      Rot      Max-DP    RMS-DP
  5  -1339.86611236  -0.0008989980  0.001702  0.001702  0.003019  0.000100
               *** Restarting incremental Fock matrix formation ***
  6  -1339.86628689  -0.0001745344  0.001319  0.003662  0.002971  0.000066
  7  -1339.86634468  -0.0000577914  0.000831  0.005011  0.003868  0.000067
  8  -1339.86636058  -0.0000158921  0.000320  0.000712  0.000863  0.000022
  9  -1339.86636510  -0.0000045223  0.000175  0.000351  0.000364  0.000009
 10  -1339.86636569  -0.0000005880  0.000053  0.000240  0.000177  0.000004
                 **** Energy Check signals convergence ****
              ***Rediagonalizing the Fockian in SOSCF/NRSCF***

               *****************************************************
               *                     SUCCESS                       *
               *           SCF CONVERGED AFTER  11 CYCLES          *
               *****************************************************

Setting up the final grid:

General Integration Accuracy     IntAcc      ...  4.670
Radial Grid Type                 RadialGrid  ... Gauss-Chebyshev
Angular Grid (max. acc.)         AngularGrid ... Lebedev-302
Angular grid pruning method      GridPruning ... 3 (G Style)
Weight generation scheme         WeightScheme... Becke
Basis function cutoff            BFCut       ...    1.0000e-10
Integration weight cutoff        WCut        ...    1.0000e-14
Grids for H and He will be reduced by one unit

# of grid points (after initial pruning)     ... 161752 (   0.0 sec)
# of grid points (after weights+screening)   ... 142747 (   0.1 sec)
nearest neighbour list constructed           ...    0.0 sec
Grid point re-assignment to atoms done       ...    0.0 sec
Grid point division into batches done        ...    0.5 sec
Reduced shell lists constructed in    0.5 sec

Total number of grid points                  ...   142747
Total number of batches                      ...     2251
Average number of points per batch           ...       63
Average number of grid points per atom       ...     4198
Average number of shells per batch           ...    62.94 (40.87%)
Average number of basis functions per batch  ...   123.99 (38.51%)
Average number of large shells per batch     ...    38.39 (61.00%)
Average number of large basis fcns per batch ...    79.76 (64.33%)
Maximum spatial batch extension              ...  13.49, 13.42, 13.51 au
Average spatial batch extension              ...   0.12,  0.12,  0.12 au

Final grid set up in    0.9 sec
Final integration                            ... done (   0.2 sec)
Change in XC energy                          ...     0.007321625
Integrated number of electrons               ...   134.000101010
Previous integrated no of electrons          ...   134.003022408

----------------
TOTAL SCF ENERGY
----------------

Total Energy       :        -1339.85904429 Eh          -36459.41816 eV

Components:
Nuclear Repulsion  :         1281.88367439 Eh           34881.82814 eV
Electronic Energy  :        -2621.74271868 Eh          -71341.24629 eV
One Electron Energy:        -4380.41072713 Eh         -119197.03575 eV
Two Electron Energy:         1758.66800845 Eh           47855.78945 eV

Virial components:
Potential Energy   :        -2671.37204251 Eh          -72691.72885 eV
Kinetic Energy     :         1331.51299822 Eh           36232.31070 eV
Virial Ratio       :            2.00626809


DFT components:
N(Alpha)           :       67.000050504774 electrons
N(Beta)            :       67.000050504774 electrons
N(Total)           :      134.000101009549 electrons
E(XC)              :      -94.253039302986 Eh       
DFET-embed. en.    :        0.000000000000 Eh       

---------------
SCF CONVERGENCE
---------------

  Last Energy change         ...   -2.3134e-07  Tolerance :   1.0000e-06
  Last MAX-Density change    ...    3.0577e-05  Tolerance :   1.0000e-05
  Last RMS-Density change    ...    7.1396e-07  Tolerance :   1.0000e-06
  Last Orbital Gradient      ...    7.8547e-06  Tolerance :   5.0000e-05
  Last Orbital Rotation      ...    2.4822e-05  Tolerance :   5.0000e-05

             **** THE GBW FILE WAS UPDATED (config_8937.gbw) ****
             **** DENSITY FILE WAS UPDATED (config_8937.scfp) ****
             **** ENERGY FILE WAS UPDATED (config_8937.en.tmp) ****
             **** THE GBW FILE WAS UPDATED (config_8937.gbw) ****
             **** DENSITY FILE WAS UPDATED (config_8937.scfp) ****
----------------
ORBITAL ENERGIES
----------------

  NO   OCC          E(Eh)            E(eV) 
   0   2.0000     -88.966592     -2420.9040 
   1   2.0000     -88.962377     -2420.7893 
   2   2.0000     -10.328803      -281.0610 
   3   2.0000     -10.328188      -281.0443 
   4   2.0000     -10.316961      -280.7388 
   5   2.0000     -10.313577      -280.6467 
   6   2.0000     -10.305520      -280.4275 
   7   2.0000     -10.302851      -280.3548 
   8   2.0000     -10.302425      -280.3432 
   9   2.0000     -10.294837      -280.1368 
  10   2.0000     -10.294317      -280.1226 
  11   2.0000     -10.289476      -279.9909 
  12   2.0000     -10.288218      -279.9566 
  13   2.0000     -10.284010      -279.8421 
  14   2.0000     -10.274215      -279.5756 
  15   2.0000     -10.273961      -279.5687 
  16   2.0000      -8.081577      -219.9109 
  17   2.0000      -8.077544      -219.8011 
  18   2.0000      -6.039977      -164.3561 
  19   2.0000      -6.036084      -164.2502 
  20   2.0000      -6.035992      -164.2477 
  21   2.0000      -6.032482      -164.1522 
  22   2.0000      -6.031896      -164.1362 
  23   2.0000      -6.028300      -164.0384 
  24   2.0000      -1.008220       -27.4351 
  25   2.0000      -0.987201       -26.8631 
  26   2.0000      -0.918108       -24.9830 
  27   2.0000      -0.908046       -24.7092 
  28   2.0000      -0.872294       -23.7363 
  29   2.0000      -0.850833       -23.1523 
  30   2.0000      -0.843752       -22.9596 
  31   2.0000      -0.816782       -22.2258 
  32   2.0000      -0.782074       -21.2813 
  33   2.0000      -0.769330       -20.9345 
  34   2.0000      -0.712210       -19.3802 
  35   2.0000      -0.699454       -19.0331 
  36   2.0000      -0.690158       -18.7802 
  37   2.0000      -0.653035       -17.7700 
  38   2.0000      -0.648697       -17.6520 
  39   2.0000      -0.614547       -16.7227 
  40   2.0000      -0.586277       -15.9534 
  41   2.0000      -0.573062       -15.5938 
  42   2.0000      -0.568022       -15.4567 
  43   2.0000      -0.555411       -15.1135 
  44   2.0000      -0.541827       -14.7439 
  45   2.0000      -0.529210       -14.4005 
  46   2.0000      -0.518277       -14.1030 
  47   2.0000      -0.512978       -13.9588 
  48   2.0000      -0.508995       -13.8505 
  49   2.0000      -0.499667       -13.5966 
  50   2.0000      -0.484822       -13.1927 
  51   2.0000      -0.479480       -13.0473 
  52   2.0000      -0.473301       -12.8792 
  53   2.0000      -0.468978       -12.7615 
  54   2.0000      -0.454655       -12.3718 
  55   2.0000      -0.448491       -12.2041 
  56   2.0000      -0.440877       -11.9969 
  57   2.0000      -0.438019       -11.9191 
  58   2.0000      -0.431045       -11.7293 
  59   2.0000      -0.426502       -11.6057 
  60   2.0000      -0.420367       -11.4388 
  61   2.0000      -0.412875       -11.2349 
  62   2.0000      -0.408265       -11.1094 
  63   2.0000      -0.338960        -9.2236 
  64   2.0000      -0.327429        -8.9098 
  65   2.0000      -0.324021        -8.8171 
  66   2.0000      -0.305298        -8.3076 
  67   0.0000       0.036198         0.9850 
  68   0.0000       0.054605         1.4859 
  69   0.0000       0.116799         3.1783 
  70   0.0000       0.125754         3.4219 
  71   0.0000       0.132437         3.6038 
  72   0.0000       0.134471         3.6591 
  73   0.0000       0.150341         4.0910 
  74   0.0000       0.153989         4.1903 
  75   0.0000       0.156551         4.2600 
  76   0.0000       0.163440         4.4474 
  77   0.0000       0.178809         4.8656 
  78   0.0000       0.186062         5.0630 
  79   0.0000       0.191089         5.1998 
  80   0.0000       0.199623         5.4320 
  81   0.0000       0.206501         5.6192 
  82   0.0000       0.214656         5.8411 
  83   0.0000       0.217685         5.9235 
  84   0.0000       0.225573         6.1382 
  85   0.0000       0.231142         6.2897 
  86   0.0000       0.235543         6.4095 
  87   0.0000       0.241678         6.5764 
  88   0.0000       0.246378         6.7043 
  89   0.0000       0.253589         6.9005 
  90   0.0000       0.257122         6.9966 
  91   0.0000       0.264042         7.1849 
  92   0.0000       0.271906         7.3989 
  93   0.0000       0.302437         8.2297 
  94   0.0000       0.303966         8.2713 
  95   0.0000       0.318351         8.6628 
  96   0.0000       0.323177         8.7941 
  97   0.0000       0.341490         9.2924 
  98   0.0000       0.353079         9.6078 
  99   0.0000       0.371152        10.0996 
 100   0.0000       0.384323        10.4580 
 101   0.0000       0.400270        10.8919 
 102   0.0000       0.416951        11.3458 
 103   0.0000       0.423687        11.5291 
 104   0.0000       0.429719        11.6932 
 105   0.0000       0.439241        11.9523 
 106   0.0000       0.463581        12.6147 
 107   0.0000       0.478504        13.0207 
 108   0.0000       0.490249        13.3404 
 109   0.0000       0.498989        13.5782 
 110   0.0000       0.504290        13.7224 
 111   0.0000       0.514985        14.0135 
 112   0.0000       0.517438        14.0802 
 113   0.0000       0.518837        14.1183 
 114   0.0000       0.528505        14.3813 
 115   0.0000       0.531135        14.4529 
 116   0.0000       0.539656        14.6848 
 117   0.0000       0.547007        14.8848 
 118   0.0000       0.557359        15.1665 
 119   0.0000       0.561446        15.2777 
 120   0.0000       0.570331        15.5195 
 121   0.0000       0.582757        15.8576 
 122   0.0000       0.601649        16.3717 
 123   0.0000       0.607951        16.5432 
 124   0.0000       0.618325        16.8255 
 125   0.0000       0.622908        16.9502 
 126   0.0000       0.636147        17.3105 
 127   0.0000       0.637927        17.3589 
 128   0.0000       0.655249        17.8302 
 129   0.0000       0.661688        18.0055 
 130   0.0000       0.674010        18.3407 
 131   0.0000       0.676463        18.4075 
 132   0.0000       0.683051        18.5868 
 133   0.0000       0.698494        19.0070 
 134   0.0000       0.707366        19.2484 
 135   0.0000       0.716060        19.4850 
 136   0.0000       0.723056        19.6753 
 137   0.0000       0.728125        19.8133 
 138   0.0000       0.734027        19.9739 
 139   0.0000       0.736819        20.0499 
 140   0.0000       0.744056        20.2468 
 141   0.0000       0.749274        20.3888 
 142   0.0000       0.749969        20.4077 
 143   0.0000       0.754797        20.5391 
 144   0.0000       0.762791        20.7566 
 145   0.0000       0.766526        20.8582 
 146   0.0000       0.774163        21.0660 
 147   0.0000       0.776677        21.1345 
 148   0.0000       0.781240        21.2586 
 149   0.0000       0.783571        21.3221 
 150   0.0000       0.786090        21.3906 
 151   0.0000       0.791734        21.5442 
 152   0.0000       0.793455        21.5910 
 153   0.0000       0.798360        21.7245 
 154   0.0000       0.801887        21.8204 
 155   0.0000       0.807817        21.9818 
 156   0.0000       0.809960        22.0401 
 157   0.0000       0.823007        22.3952 
 158   0.0000       0.826252        22.4835 
 159   0.0000       0.826950        22.5025 
 160   0.0000       0.828332        22.5401 
 161   0.0000       0.832767        22.6607 
 162   0.0000       0.835610        22.7381 
 163   0.0000       0.842115        22.9151 
 164   0.0000       0.847623        23.0650 
 165   0.0000       0.854203        23.2440 
 166   0.0000       0.869635        23.6640 
 167   0.0000       0.872218        23.7342 
 168   0.0000       0.885221        24.0881 
 169   0.0000       0.890294        24.2261 
 170   0.0000       0.903822        24.5942 
 171   0.0000       0.913918        24.8690 
 172   0.0000       0.931997        25.3609 
 173   0.0000       0.933611        25.4049 
 174   0.0000       0.960481        26.1360 
 175   0.0000       0.980577        26.6829 
 176   0.0000       0.990948        26.9651 
 177   0.0000       1.003362        27.3029 
 178   0.0000       1.010642        27.5010 
 179   0.0000       1.016442        27.6588 
 180   0.0000       1.050935        28.5974 
 181   0.0000       1.070759        29.1368 
 182   0.0000       1.080860        29.4117 
 183   0.0000       1.092465        29.7275 
 184   0.0000       1.110452        30.2169 
 185   0.0000       1.134026        30.8584 
 186   0.0000       1.135657        30.9028 
 187   0.0000       1.158219        31.5167 
 188   0.0000       1.184170        32.2229 
 189   0.0000       1.210180        32.9307 
 190   0.0000       1.224760        33.3274 
 191   0.0000       1.236724        33.6530 
 192   0.0000       1.251155        34.0457 
 193   0.0000       1.269983        34.5580 
 194   0.0000       1.276474        34.7346 
 195   0.0000       1.285055        34.9681 
 196   0.0000       1.333451        36.2850 
 197   0.0000       1.347374        36.6639 
 198   0.0000       1.363218        37.0950 
 199   0.0000       1.368788        37.2466 
 200   0.0000       1.383056        37.6349 
 201   0.0000       1.400384        38.1064 
 202   0.0000       1.419099        38.6156 
 203   0.0000       1.434353        39.0307 
 204   0.0000       1.446945        39.3734 
 205   0.0000       1.470288        40.0086 
 206   0.0000       1.474472        40.1224 
 207   0.0000       1.513741        41.1910 
 208   0.0000       1.526851        41.5477 
 209   0.0000       1.560207        42.4554 
 210   0.0000       1.574851        42.8539 
 211   0.0000       1.606217        43.7074 
 212   0.0000       1.629472        44.3402 
 213   0.0000       1.652618        44.9700 
 214   0.0000       1.660059        45.1725 
 215   0.0000       1.660925        45.1961 
 216   0.0000       1.698891        46.2292 
 217   0.0000       1.699883        46.2562 
 218   0.0000       1.727984        47.0208 
 219   0.0000       1.766794        48.0769 
 220   0.0000       1.786082        48.6018 
 221   0.0000       1.797942        48.9245 
 222   0.0000       1.801815        49.0299 
 223   0.0000       1.810041        49.2537 
 224   0.0000       1.828593        49.7585 
 225   0.0000       1.830807        49.8188 
 226   0.0000       1.842013        50.1237 
 227   0.0000       1.850428        50.3527 
 228   0.0000       1.855054        50.4786 
 229   0.0000       1.856760        50.5250 
 230   0.0000       1.868244        50.8375 
 231   0.0000       1.883995        51.2661 
 232   0.0000       1.889060        51.4039 
 233   0.0000       1.895715        51.5850 
 234   0.0000       1.901785        51.7502 
 235   0.0000       1.904692        51.8293 
 236   0.0000       1.914348        52.0920 
 237   0.0000       1.925771        52.4029 
 238   0.0000       1.928412        52.4748 
 239   0.0000       1.943238        52.8782 
 240   0.0000       1.946624        52.9703 
 241   0.0000       1.952409        53.1278 
 242   0.0000       1.955887        53.2224 
 243   0.0000       1.972116        53.6640 
 244   0.0000       1.985901        54.0391 
 245   0.0000       1.996462        54.3265 
 246   0.0000       1.998818        54.3906 
 247   0.0000       2.005797        54.5805 
 248   0.0000       2.014889        54.8279 
 249   0.0000       2.025378        55.1133 
 250   0.0000       2.041844        55.5614 
 251   0.0000       2.052679        55.8562 
 252   0.0000       2.060862        56.0789 
 253   0.0000       2.071192        56.3600 
 254   0.0000       2.084094        56.7111 
 255   0.0000       2.092023        56.9268 
 256   0.0000       2.111336        57.4524 
 257   0.0000       2.127058        57.8802 
 258   0.0000       2.130135        57.9639 
 259   0.0000       2.145152        58.3725 
 260   0.0000       2.164969        58.9118 
 261   0.0000       2.172026        59.1038 
 262   0.0000       2.195182        59.7339 
 263   0.0000       2.201595        59.9085 
 264   0.0000       2.208752        60.1032 
 265   0.0000       2.225918        60.5703 
 266   0.0000       2.241383        60.9911 
 267   0.0000       2.265149        61.6378 
 268   0.0000       2.275622        61.9228 
 269   0.0000       2.308213        62.8097 
 270   0.0000       2.320147        63.1344 
 271   0.0000       2.328070        63.3500 
 272   0.0000       2.368631        64.4537 
 273   0.0000       2.389542        65.0228 
 274   0.0000       2.392489        65.1029 
 275   0.0000       2.420022        65.8521 
 276   0.0000       2.432276        66.1856 
 277   0.0000       2.442797        66.4719 
 278   0.0000       2.457019        66.8589 
 279   0.0000       2.484149        67.5971 
 280   0.0000       2.499046        68.0025 
 281   0.0000       2.511446        68.3399 
 282   0.0000       2.522456        68.6395 
 283   0.0000       2.536017        69.0085 
 284   0.0000       2.543902        69.2231 
 285   0.0000       2.546039        69.2812 
 286   0.0000       2.574110        70.0451 
 287   0.0000       2.574442        70.0541 
 288   0.0000       2.587295        70.4039 
 289   0.0000       2.621075        71.3231 
 290   0.0000       2.640033        71.8389 
 291   0.0000       2.664002        72.4912 
 292   0.0000       2.673031        72.7369 
 293   0.0000       2.709433        73.7274 
 294   0.0000       2.710846        73.7659 
 295   0.0000       2.730624        74.3041 
 296   0.0000       2.747383        74.7601 
 297   0.0000       2.757819        75.0441 
 298   0.0000       2.766686        75.2853 
 299   0.0000       2.781377        75.6851 
 300   0.0000       2.847777        77.4920 
 301   0.0000       2.862586        77.8949 
 302   0.0000       2.896178        78.8090 
 303   0.0000       2.917417        79.3869 
 304   0.0000       2.946899        80.1892 
 305   0.0000       2.960300        80.5539 
 306   0.0000       2.999093        81.6095 
 307   0.0000       3.007206        81.8302 
 308   0.0000       3.020854        82.2016 
 309   0.0000       3.037143        82.6449 
 310   0.0000       3.054423        83.1151 
 311   0.0000       3.070405        83.5500 
 312   0.0000       3.086453        83.9867 
 313   0.0000       3.117186        84.8229 
 314   0.0000       3.144097        85.5552 
 315   0.0000       3.157215        85.9122 
 316   0.0000       3.186043        86.6966 
 317   0.0000       3.206982        87.2664 
 318   0.0000       3.241186        88.1971 
 319   0.0000       3.258303        88.6629 
 320   0.0000       3.366795        91.6151 
 321   0.0000       3.404588        92.6436 

                    ********************************
                    * MULLIKEN POPULATION ANALYSIS *
                    ********************************

-----------------------
MULLIKEN ATOMIC CHARGES
-----------------------
   0 S :    0.101270
   1 C :   -0.086104
   2 C :   -0.108763
   3 C :    0.035712
   4 C :   -0.181604
   5 H :    0.030094
   6 C :    0.080332
   7 H :    0.019836
   8 H :    0.027970
   9 C :   -0.062697
  10 H :    0.030042
  11 H :    0.025629
  12 C :   -0.033129
  13 H :    0.015920
  14 H :    0.035829
  15 H :    0.019833
  16 S :    0.128667
  17 C :   -0.120359
  18 C :   -0.066940
  19 C :   -0.005873
  20 C :   -0.164617
  21 H :    0.027964
  22 C :    0.036643
  23 H :    0.035750
  24 H :    0.044065
  25 C :   -0.058154
  26 H :    0.022340
  27 H :    0.029637
  28 C :   -0.057479
  29 H :    0.036143
  30 H :    0.026866
  31 H :    0.027738
  32 H :    0.031154
  33 H :    0.076286
Sum of atomic charges:    0.0000000

--------------------------------
MULLIKEN REDUCED ORBITAL CHARGES
--------------------------------
  0 S s       :     5.849082  s :     5.849082
      pz      :     3.394713  p :     9.939450
      px      :     3.597652
      py      :     2.947085
      dz2     :     0.013705  d :     0.110198
      dxz     :     0.011850
      dyz     :     0.044100
      dx2y2   :     0.013778
      dxy     :     0.026765
  1 C s       :     3.176760  s :     3.176760
      pz      :     0.942503  p :     2.875505
      px      :     1.089673
      py      :     0.843330
      dz2     :     0.007528  d :     0.033838
      dxz     :     0.006374
      dyz     :     0.011702
      dx2y2   :     0.004955
      dxy     :     0.003279
  2 C s       :     3.079258  s :     3.079258
      pz      :     0.983410  p :     2.986642
      px      :     1.002263
      py      :     1.000969
      dz2     :     0.011199  d :     0.042863
      dxz     :     0.007641
      dyz     :     0.011302
      dx2y2   :     0.006622
      dxy     :     0.006099
  3 C s       :     3.196517  s :     3.196517
      pz      :     0.872344  p :     2.734353
      px      :     0.997879
      py      :     0.864130
      dz2     :     0.007462  d :     0.033418
      dxz     :     0.004575
      dyz     :     0.011195
      dx2y2   :     0.004632
      dxy     :     0.005555
  4 C s       :     3.101486  s :     3.101486
      pz      :     0.968254  p :     3.033852
      px      :     1.093517
      py      :     0.972082
      dz2     :     0.008919  d :     0.046266
      dxz     :     0.007700
      dyz     :     0.017278
      dx2y2   :     0.005879
      dxy     :     0.006492
  5 H s       :     0.946725  s :     0.946725
      pz      :     0.010339  p :     0.023181
      px      :     0.005185
      py      :     0.007657
  6 C s       :     2.958257  s :     2.958257
      pz      :     0.941992  p :     2.925054
      px      :     1.009017
      py      :     0.974044
      dz2     :     0.005459  d :     0.036358
      dxz     :     0.009165
      dyz     :     0.009451
      dx2y2   :     0.009142
      dxy     :     0.003142
  7 H s       :     0.958806  s :     0.958806
      pz      :     0.005531  p :     0.021358
      px      :     0.003916
      py      :     0.011911
  8 H s       :     0.948935  s :     0.948935
      pz      :     0.005814  p :     0.023096
      px      :     0.012443
      py      :     0.004839
  9 C s       :     3.035097  s :     3.035097
      pz      :     0.961950  p :     2.989325
      px      :     1.003462
      py      :     1.023912
      dz2     :     0.007996  d :     0.038275
      dxz     :     0.009451
      dyz     :     0.007162
      dx2y2   :     0.009838
      dxy     :     0.003827
 10 H s       :     0.947965  s :     0.947965
      pz      :     0.004892  p :     0.021993
      px      :     0.011532
      py      :     0.005569
 11 H s       :     0.950761  s :     0.950761
      pz      :     0.004829  p :     0.023611
      px      :     0.004918
      py      :     0.013864
 12 C s       :     2.989485  s :     2.989485
      pz      :     0.982520  p :     3.014057
      px      :     1.011477
      py      :     1.020060
      dz2     :     0.005762  d :     0.029587
      dxz     :     0.008590
      dyz     :     0.004068
      dx2y2   :     0.009515
      dxy     :     0.001651
 13 H s       :     0.957975  s :     0.957975
      pz      :     0.004950  p :     0.026105
      px      :     0.006226
      py      :     0.014929
 14 H s       :     0.940491  s :     0.940491
      pz      :     0.009021  p :     0.023680
      px      :     0.009497
      py      :     0.005162
 15 H s       :     0.957077  s :     0.957077
      pz      :     0.005476  p :     0.023090
      px      :     0.012062
      py      :     0.005552
 16 S s       :     5.840911  s :     5.840911
      pz      :     3.637368  p :     9.917134
      px      :     3.237363
      py      :     3.042402
      dz2     :     0.012746  d :     0.113289
      dxz     :     0.013238
      dyz     :     0.023444
      dx2y2   :     0.037853
      dxy     :     0.026008
 17 C s       :     3.155117  s :     3.155117
      pz      :     1.081793  p :     2.929365
      px      :     0.986708
      py      :     0.860864
      dz2     :     0.003095  d :     0.035878
      dxz     :     0.006552
      dyz     :     0.004732
      dx2y2   :     0.010506
      dxy     :     0.010992
 18 C s       :     3.186475  s :     3.186475
      pz      :     1.028236  p :     2.844816
      px      :     0.933103
      py      :     0.883478
      dz2     :     0.002870  d :     0.035649
      dxz     :     0.006589
      dyz     :     0.003954
      dx2y2   :     0.012936
      dxy     :     0.009300
 19 C s       :     3.054227  s :     3.054227
      pz      :     0.980725  p :     2.907179
      px      :     0.971882
      py      :     0.954572
      dz2     :     0.003426  d :     0.044466
      dxz     :     0.006736
      dyz     :     0.007582
      dx2y2   :     0.011314
      dxy     :     0.015408
 20 C s       :     3.073688  s :     3.073688
      pz      :     1.156361  p :     3.048858
      px      :     0.903225
      py      :     0.989272
      dz2     :     0.003408  d :     0.042071
      dxz     :     0.006010
      dyz     :     0.006151
      dx2y2   :     0.013733
      dxy     :     0.012769
 21 H s       :     0.948715  s :     0.948715
      pz      :     0.005064  p :     0.023322
      px      :     0.004596
      py      :     0.013662
 22 C s       :     3.009220  s :     3.009220
      pz      :     0.997446  p :     2.919834
      px      :     0.939480
      py      :     0.982908
      dz2     :     0.006081  d :     0.034303
      dxz     :     0.007366
      dyz     :     0.006798
      dx2y2   :     0.009325
      dxy     :     0.004733
 23 H s       :     0.941037  s :     0.941037
      pz      :     0.005927  p :     0.023213
      px      :     0.005297
      py      :     0.011989
 24 H s       :     0.934791  s :     0.934791
      pz      :     0.005815  p :     0.021145
      px      :     0.005074
      py      :     0.010256
 25 C s       :     3.054051  s :     3.054051
      pz      :     0.950272  p :     2.968356
      px      :     1.010791
      py      :     1.007294
      dz2     :     0.007825  d :     0.035746
      dxz     :     0.004697
      dyz     :     0.010216
      dx2y2   :     0.008781
      dxy     :     0.004228
 26 H s       :     0.955696  s :     0.955696
      pz      :     0.007623  p :     0.021964
      px      :     0.005641
      py      :     0.008700
 27 H s       :     0.946756  s :     0.946756
      pz      :     0.004211  p :     0.023607
      px      :     0.014337
      py      :     0.005059
 28 C s       :     3.014522  s :     3.014522
      pz      :     0.997326  p :     3.013461
      px      :     1.037464
      py      :     0.978672
      dz2     :     0.003848  d :     0.029496
      dxz     :     0.006397
      dyz     :     0.007684
      dx2y2   :     0.008610
      dxy     :     0.002958
 29 H s       :     0.938688  s :     0.938688
      pz      :     0.006799  p :     0.025169
      px      :     0.013897
      py      :     0.004473
 30 H s       :     0.949700  s :     0.949700
      pz      :     0.010532  p :     0.023434
      px      :     0.008270
      py      :     0.004632
 31 H s       :     0.949653  s :     0.949653
      pz      :     0.008567  p :     0.022609
      px      :     0.004613
      py      :     0.009429
 32 H s       :     0.943329  s :     0.943329
      pz      :     0.004320  p :     0.025517
      px      :     0.005948
      py      :     0.015249
 33 H s       :     0.901805  s :     0.901805
      pz      :     0.004680  p :     0.021909
      px      :     0.006917
      py      :     0.010312


                     *******************************
                     * LOEWDIN POPULATION ANALYSIS *
                     *******************************

----------------------
LOEWDIN ATOMIC CHARGES
----------------------
   0 S :    0.413339
   1 C :   -0.185780
   2 C :   -0.062495
   3 C :   -0.059754
   4 C :   -0.208811
   5 H :    0.037171
   6 C :   -0.029765
   7 H :    0.033250
   8 H :    0.029661
   9 C :   -0.042687
  10 H :    0.030243
  11 H :    0.022596
  12 C :   -0.061863
  13 H :    0.015224
  14 H :    0.027758
  15 H :    0.025001
  16 S :    0.427722
  17 C :   -0.210065
  18 C :   -0.086751
  19 C :   -0.057113
  20 C :   -0.209939
  21 H :    0.037517
  22 C :   -0.031947
  23 H :    0.033587
  24 H :    0.038877
  25 C :   -0.041904
  26 H :    0.027689
  27 H :    0.020735
  28 C :   -0.067620
  29 H :    0.022989
  30 H :    0.025847
  31 H :    0.021439
  32 H :    0.020586
  33 H :    0.045262

-------------------------------
LOEWDIN REDUCED ORBITAL CHARGES
-------------------------------
  0 S s       :     5.498654  s :     5.498654
      pz      :     3.419207  p :     9.951026
      px      :     3.571520
      py      :     2.960299
      dz2     :     0.014352  d :     0.136981
      dxz     :     0.012548
      dyz     :     0.058074
      dx2y2   :     0.018431
      dxy     :     0.033576
  1 C s       :     2.922314  s :     2.922314
      pz      :     1.054796  p :     3.182031
      px      :     1.092763
      py      :     1.034472
      dz2     :     0.021207  d :     0.081436
      dxz     :     0.013084
      dyz     :     0.030513
      dx2y2   :     0.010401
      dxy     :     0.006231
  2 C s       :     2.870800  s :     2.870800
      pz      :     1.060879  p :     3.087081
      px      :     0.984369
      py      :     1.041832
      dz2     :     0.030998  d :     0.104614
      dxz     :     0.014656
      dyz     :     0.030705
      dx2y2   :     0.015952
      dxy     :     0.012304
  3 C s       :     2.880619  s :     2.880619
      pz      :     1.053253  p :     3.091866
      px      :     1.008478
      py      :     1.030135
      dz2     :     0.022807  d :     0.087268
      dxz     :     0.008899
      dyz     :     0.032007
      dx2y2   :     0.012083
      dxy     :     0.011472
  4 C s       :     2.914921  s :     2.914921
      pz      :     1.075745  p :     3.184936
      px      :     1.078172
      py      :     1.031019
      dz2     :     0.023156  d :     0.108954
      dxz     :     0.015070
      dyz     :     0.042505
      dx2y2   :     0.013660
      dxy     :     0.014563
  5 H s       :     0.895427  s :     0.895427
      pz      :     0.029273  p :     0.067402
      px      :     0.015114
      py      :     0.023014
  6 C s       :     2.828696  s :     2.828696
      pz      :     1.018805  p :     3.109298
      px      :     1.056220
      py      :     1.034273
      dz2     :     0.012705  d :     0.091771
      dxz     :     0.024405
      dyz     :     0.024782
      dx2y2   :     0.023914
      dxy     :     0.005965
  7 H s       :     0.905471  s :     0.905471
      pz      :     0.016199  p :     0.061279
      px      :     0.011298
      py      :     0.033782
  8 H s       :     0.902439  s :     0.902439
      pz      :     0.017979  p :     0.067900
      px      :     0.035921
      py      :     0.014001
  9 C s       :     2.823083  s :     2.823083
      pz      :     1.023785  p :     3.125096
      px      :     1.041128
      py      :     1.060183
      dz2     :     0.019097  d :     0.094509
      dxz     :     0.024092
      dyz     :     0.017702
      dx2y2   :     0.024511
      dxy     :     0.009106
 10 H s       :     0.906902  s :     0.906902
      pz      :     0.015178  p :     0.062855
      px      :     0.032575
      py      :     0.015101
 11 H s       :     0.907513  s :     0.907513
      pz      :     0.015844  p :     0.069891
      px      :     0.014837
      py      :     0.039211
 12 C s       :     2.823730  s :     2.823730
      pz      :     1.033251  p :     3.162999
      px      :     1.058611
      py      :     1.071138
      dz2     :     0.014528  d :     0.075134
      dxz     :     0.021244
      dyz     :     0.011477
      dx2y2   :     0.023666
      dxy     :     0.004219
 13 H s       :     0.909555  s :     0.909555
      pz      :     0.016312  p :     0.075222
      px      :     0.016771
      py      :     0.042139
 14 H s       :     0.905727  s :     0.905727
      pz      :     0.026499  p :     0.066515
      px      :     0.025951
      py      :     0.014064
 15 H s       :     0.912937  s :     0.912937
      pz      :     0.015600  p :     0.062062
      px      :     0.032527
      py      :     0.013935
 16 S s       :     5.495516  s :     5.495516
      pz      :     3.595574  p :     9.935575
      px      :     3.274567
      py      :     3.065433
      dz2     :     0.016033  d :     0.141186
      dxz     :     0.014500
      dyz     :     0.028139
      dx2y2   :     0.049006
      dxy     :     0.033508
 17 C s       :     2.940594  s :     2.940594
      pz      :     1.079908  p :     3.186239
      px      :     1.091999
      py      :     1.014332
      dz2     :     0.005954  d :     0.083233
      dxz     :     0.012606
      dyz     :     0.009090
      dx2y2   :     0.028172
      dxy     :     0.027410
 18 C s       :     2.868167  s :     2.868167
      pz      :     1.018526  p :     3.125245
      px      :     1.066662
      py      :     1.040057
      dz2     :     0.006867  d :     0.093339
      dxz     :     0.013667
      dyz     :     0.007487
      dx2y2   :     0.037899
      dxy     :     0.027419
 19 C s       :     2.853443  s :     2.853443
      pz      :     0.979215  p :     3.091283
      px      :     1.054221
      py      :     1.057847
      dz2     :     0.007868  d :     0.112387
      dxz     :     0.013110
      dyz     :     0.016156
      dx2y2   :     0.032343
      dxy     :     0.042910
 20 C s       :     2.913414  s :     2.913414
      pz      :     1.126157  p :     3.195800
      px      :     1.012463
      py      :     1.057180
      dz2     :     0.007218  d :     0.100725
      dxz     :     0.012029
      dyz     :     0.012827
      dx2y2   :     0.035664
      dxy     :     0.032986
 21 H s       :     0.894951  s :     0.894951
      pz      :     0.015007  p :     0.067532
      px      :     0.013635
      py      :     0.038890
 22 C s       :     2.838137  s :     2.838137
      pz      :     1.032647  p :     3.107645
      px      :     1.021026
      py      :     1.053972
      dz2     :     0.016038  d :     0.086165
      dxz     :     0.017432
      dyz     :     0.016048
      dx2y2   :     0.024784
      dxy     :     0.011863
 23 H s       :     0.897556  s :     0.897556
      pz      :     0.018760  p :     0.068857
      px      :     0.015700
      py      :     0.034397
 24 H s       :     0.900117  s :     0.900117
      pz      :     0.017196  p :     0.061006
      px      :     0.014876
      py      :     0.028935
 25 C s       :     2.840714  s :     2.840714
      pz      :     1.005249  p :     3.115469
      px      :     1.063070
      py      :     1.047150
      dz2     :     0.019263  d :     0.085722
      dxz     :     0.011545
      dyz     :     0.023104
      dx2y2   :     0.021783
      dxy     :     0.010027
 26 H s       :     0.909349  s :     0.909349
      pz      :     0.023765  p :     0.062962
      px      :     0.014300
      py      :     0.024897
 27 H s       :     0.907479  s :     0.907479
      pz      :     0.014010  p :     0.071786
      px      :     0.041280
      py      :     0.016497
 28 C s       :     2.830532  s :     2.830532
      pz      :     1.046416  p :     3.162230
      px      :     1.082852
      py      :     1.032963
      dz2     :     0.008691  d :     0.074858
      dxz     :     0.016585
      dyz     :     0.021352
      dx2y2   :     0.021277
      dxy     :     0.006953
 29 H s       :     0.904374  s :     0.904374
      pz      :     0.019493  p :     0.072637
      px      :     0.038496
      py      :     0.014649
 30 H s       :     0.908381  s :     0.908381
      pz      :     0.030221  p :     0.065773
      px      :     0.021393
      py      :     0.014159
 31 H s       :     0.916823  s :     0.916823
      pz      :     0.022813  p :     0.061738
      px      :     0.011771
      py      :     0.027153
 32 H s       :     0.898144  s :     0.898144
      pz      :     0.014690  p :     0.081270
      px      :     0.019725
      py      :     0.046855
 33 H s       :     0.887945  s :     0.887945
      pz      :     0.014623  p :     0.066793
      px      :     0.019739
      py      :     0.032431


                      *****************************
                      * MAYER POPULATION ANALYSIS *
                      *****************************

  NA   - Mulliken gross atomic population
  ZA   - Total nuclear charge
  QA   - Mulliken gross atomic charge
  VA   - Mayer's total valence
  BVA  - Mayer's bonded valence
  FA   - Mayer's free valence

  ATOM       NA         ZA         QA         VA         BVA        FA
  0 S     15.8987    16.0000     0.1013     2.4923     2.4923     0.0000
  1 C      6.0861     6.0000    -0.0861     3.8548     3.8548     0.0000
  2 C      6.1088     6.0000    -0.1088     3.9823     3.9823    -0.0000
  3 C      5.9643     6.0000     0.0357     3.8979     3.8979     0.0000
  4 C      6.1816     6.0000    -0.1816     3.9170     3.9170     0.0000
  5 H      0.9699     1.0000     0.0301     1.0046     1.0046    -0.0000
  6 C      5.9197     6.0000     0.0803     3.9632     3.9632    -0.0000
  7 H      0.9802     1.0000     0.0198     0.9896     0.9896    -0.0000
  8 H      0.9720     1.0000     0.0280     0.9885     0.9885    -0.0000
  9 C      6.0627     6.0000    -0.0627     4.0869     4.0869    -0.0000
 10 H      0.9700     1.0000     0.0300     0.9779     0.9779    -0.0000
 11 H      0.9744     1.0000     0.0256     0.9842     0.9842    -0.0000
 12 C      6.0331     6.0000    -0.0331     4.0029     4.0029    -0.0000
 13 H      0.9841     1.0000     0.0159     0.9907     0.9907     0.0000
 14 H      0.9642     1.0000     0.0358     0.9864     0.9864    -0.0000
 15 H      0.9802     1.0000     0.0198     0.9919     0.9919     0.0000
 16 S     15.8713    16.0000     0.1287     2.5153     2.5153     0.0000
 17 C      6.1204     6.0000    -0.1204     3.8528     3.8528     0.0000
 18 C      6.0669     6.0000    -0.0669     3.9713     3.9713    -0.0000
 19 C      6.0059     6.0000    -0.0059     3.9714     3.9714     0.0000
 20 C      6.1646     6.0000    -0.1646     3.8699     3.8699     0.0000
 21 H      0.9720     1.0000     0.0280     0.9964     0.9964    -0.0000
 22 C      5.9634     6.0000     0.0366     3.9910     3.9910     0.0000
 23 H      0.9642     1.0000     0.0358     0.9864     0.9864    -0.0000
 24 H      0.9559     1.0000     0.0441     0.9821     0.9821    -0.0000
 25 C      6.0582     6.0000    -0.0582     4.0656     4.0656     0.0000
 26 H      0.9777     1.0000     0.0223     0.9830     0.9830     0.0000
 27 H      0.9704     1.0000     0.0296     0.9801     0.9801    -0.0000
 28 C      6.0575     6.0000    -0.0575     3.9804     3.9804    -0.0000
 29 H      0.9639     1.0000     0.0361     0.9905     0.9905     0.0000
 30 H      0.9731     1.0000     0.0269     0.9861     0.9861     0.0000
 31 H      0.9723     1.0000     0.0277     0.9965     0.9965    -0.0000
 32 H      0.9688     1.0000     0.0312     1.0114     1.0114     0.0000
 33 H      0.9237     1.0000     0.0763     0.9896     0.9896    -0.0000

  Mayer bond orders larger than 0.100000
B(  0-S ,  1-C ) :   1.1450 B(  0-S ,  4-C ) :   1.1574 B(  1-C ,  2-C ) :   1.6092 
B(  1-C , 32-H ) :   0.9772 B(  2-C ,  3-C ) :   1.2229 B(  2-C ,  6-C ) :   1.0214 
B(  3-C ,  4-C ) :   1.5850 B(  3-C ,  5-H ) :   0.9868 B(  4-C , 20-C ) :   1.0137 
B(  6-C ,  7-H ) :   0.9378 B(  6-C ,  8-H ) :   0.9375 B(  6-C ,  9-C ) :   1.0744 
B(  9-C , 10-H ) :   0.9485 B(  9-C , 11-H ) :   0.9567 B(  9-C , 12-C ) :   1.0878 
B( 12-C , 13-H ) :   0.9738 B( 12-C , 14-H ) :   0.9736 B( 12-C , 15-H ) :   0.9728 
B( 16-S , 17-C ) :   1.1794 B( 16-S , 20-C ) :   1.1564 B( 17-C , 18-C ) :   1.5943 
B( 17-C , 20-C ) :   0.1047 B( 17-C , 33-H ) :   0.9557 B( 18-C , 19-C ) :   1.2620 
B( 18-C , 21-H ) :   0.9892 B( 19-C , 20-C ) :   1.5562 B( 19-C , 22-C ) :   1.0490 
B( 22-C , 23-H ) :   0.9242 B( 22-C , 24-H ) :   0.9461 B( 22-C , 25-C ) :   1.0646 
B( 25-C , 26-H ) :   0.9534 B( 25-C , 27-H ) :   0.9616 B( 25-C , 28-C ) :   1.0676 
B( 28-C , 29-H ) :   0.9727 B( 28-C , 30-H ) :   0.9696 B( 28-C , 31-H ) :   0.9762 


-------
TIMINGS
-------

Total SCF time: 0 days 0 hours 0 min 19 sec 

Total time                  ....      19.707 sec
Sum of individual times     ....      18.837 sec  ( 95.6%)

Fock matrix formation       ....      17.165 sec  ( 87.1%)
  XC integration            ....       1.488 sec  (  8.7% of F)
    Basis function eval.    ....       0.142 sec  (  9.5% of XC)
    Density eval.           ....       0.100 sec  (  6.7% of XC)
    XC-Functional eval.     ....       0.112 sec  (  7.5% of XC)
    XC-Potential eval.      ....       0.109 sec  (  7.3% of XC)
Diagonalization             ....       0.140 sec  (  0.7%)
Density matrix formation    ....       0.022 sec  (  0.1%)
Population analysis         ....       0.054 sec  (  0.3%)
Initial guess               ....       0.165 sec  (  0.8%)
Orbital Transformation      ....       0.000 sec  (  0.0%)
Orbital Orthonormalization  ....       0.000 sec  (  0.0%)
DIIS solution               ....       0.163 sec  (  0.8%)
SOSCF solution              ....       0.124 sec  (  0.6%)
Grid generation             ....       1.004 sec  (  5.1%)


-------------------------------------------------------------------------------
                          DFT DISPERSION CORRECTION                            
                                                                               
                              DFTD3 V3.1  Rev 1                                
                              USING zero damping                               
-------------------------------------------------------------------------------
The omegaB97X-D3 functional is recognized. Fit by Chai et al.
Active option DFTDOPT                   ...         3   

molecular C6(AA) [au] = 14169.543805 


            DFT-D V3
 parameters
 s6 scaling factor         :     1.0000 
 rs6 scaling factor        :     1.2810 
 s8 scaling factor         :     1.0000 
 rs8 scaling factor        :     1.0940 
 Damping factor alpha6     :    14.0000 
 Damping factor alpha8     :    16.0000 
 ad hoc parameters k1-k3   :    16.0000     1.3333    -4.0000 

 Edisp/kcal,au: -8.998587869780  -0.014340161036 
 E6   /kcal   :  -4.116916190 
 E8   /kcal   :  -4.881671680 
 % E8         :  54.249308346 

-------------------------   ----------------
Dispersion correction           -0.014340161
-------------------------   ----------------


-------------------------   --------------------
FINAL SINGLE POINT ENERGY     -1339.873384453439
-------------------------   --------------------


                            ***************************************
                            *     ORCA property calculations      *
                            ***************************************

                                    ---------------------
                                    Active property flags
                                    ---------------------
   (+) Dipole Moment


------------------------------------------------------------------------------
                       ORCA ELECTRIC PROPERTIES CALCULATION
------------------------------------------------------------------------------

Dipole Moment Calculation                       ... on
Quadrupole Moment Calculation                   ... off
Polarizability Calculation                      ... off
GBWName                                         ... config_8937.gbw
Electron density file                           ... config_8937.scfp
The origin for moment calculation is the CENTER OF MASS  = (-8.588786, -32.838072 -196.721263)

-------------
DIPOLE MOMENT
-------------
                                X             Y             Z
Electronic contribution:     12.27544       2.94565     -21.96462
Nuclear contribution   :    -12.46579      -2.94794      22.60660
                        -----------------------------------------
Total Dipole Moment    :     -0.19035      -0.00229       0.64198
                        -----------------------------------------
Magnitude (a.u.)       :      0.66961
Magnitude (Debye)      :      1.70200



--------------------
Rotational spectrum 
--------------------
 
Rotational constants in cm-1:     0.019111     0.008019     0.006947 
Rotational constants in MHz :   572.935471   240.397510   208.277266 

 Dipole components along the rotational axes: 
x,y,z [a.u.] :     0.197591     0.597355    -0.229124 
x,y,z [Debye]:     0.502236     1.518355    -0.582387 

 

Timings for individual modules:

Sum of individual times         ...       20.850 sec (=   0.348 min)
GTO integral calculation        ...        0.763 sec (=   0.013 min)   3.7 %
SCF iterations                  ...       20.088 sec (=   0.335 min)  96.3 %
                             ****ORCA TERMINATED NORMALLY****
TOTAL RUN TIME: 0 days 0 hours 0 minutes 21 seconds 542 msec
