
                                 *****************
                                 * O   R   C   A *
                                 *****************

           --- An Ab Initio, DFT and Semiempirical electronic structure package ---

                  #######################################################
                  #                        -***-                        #
                  #          Department of theory and spectroscopy      #
                  #               Directorship: Frank Neese             #
                  #        Max Planck Institute fuer Kohlenforschung    #
                  #                Kaiser Wilhelm Platz 1               #
                  #                 D-45470 Muelheim/Ruhr               #
                  #                      Germany                        #
                  #                                                     #
                  #                  All rights reserved                #
                  #                        -***-                        #
                  #######################################################


                         Program Version 4.2.1 -  RELEASE  -


 With contributions from (in alphabetic order):
   Daniel Aravena         : Magnetic Suceptibility
   Michael Atanasov       : Ab Initio Ligand Field Theory (pilot matlab implementation)
   Alexander A. Auer      : GIAO ZORA, VPT2
   Ute Becker             : Parallelization
   Giovanni Bistoni       : ED, misc. LED, open-shell LED, HFLD
   Martin Brehm           : Molecular dynamics
   Dmytro Bykov           : SCF Hessian
   Vijay G. Chilkuri      : MRCI spin determinant printing, contributions to CSF-ICE
   Dipayan Datta          : RHF DLPNO-CCSD density
   Achintya Kumar Dutta   : EOM-CC, STEOM-CC
   Dmitry Ganyushin       : Spin-Orbit,Spin-Spin,Magnetic field MRCI
   Miquel Garcia          : C-PCM Hessian, Gaussian charge scheme
   Yang Guo               : DLPNO-NEVPT2, CIM, IAO-localization
   Andreas Hansen         : Spin unrestricted coupled pair/coupled cluster methods
   Benjamin Helmich-Paris : CASSCF linear response (MC-RPA)
   Lee Huntington         : MR-EOM, pCC
   Robert Izsak           : Overlap fitted RIJCOSX, COSX-SCS-MP3, EOM
   Christian Kollmar      : KDIIS, OOCD, Brueckner-CCSD(T), CCSD density
   Simone Kossmann        : Meta GGA functionals, TD-DFT gradient, OOMP2, MP2 Hessian
   Martin Krupicka        : AUTO-CI
   Lucas Lang             : DCDCAS
   Dagmar Lenk            : GEPOL surface, SMD
   Dimitrios Liakos       : Extrapolation schemes; Compound Job, initial MDCI parallelization
   Dimitrios Manganas     : Further ROCIS development; embedding schemes
   Dimitrios Pantazis     : SARC Basis sets
   Taras Petrenko         : DFT Hessian,TD-DFT gradient, ASA, ECA, R-Raman, ABS, FL, XAS/XES, NRVS
   Peter Pinski           : DLPNO-MP2, DLPNO-MP2 Gradient
   Christoph Reimann      : Effective Core Potentials
   Marius Retegan         : Local ZFS, SOC
   Christoph Riplinger    : Optimizer, TS searches, QM/MM, DLPNO-CCSD(T), (RO)-DLPNO pert. Triples
   Tobias Risthaus        : Range-separated hybrids, TD-DFT gradient, RPA, STAB
   Michael Roemelt        : Original ROCIS implementation
   Masaaki Saitow         : Open-shell DLPNO-CCSD energy and density
   Barbara Sandhoefer     : DKH picture change effects
   Avijit Sen             : IP-ROCIS
   Kantharuban Sivalingam : CASSCF convergence, NEVPT2, FIC-MRCI
   Bernardo de Souza      : ESD, SOC TD-DFT
   Georgi Stoychev        : AutoAux, RI-MP2 NMR
   Willem Van den Heuvel  : Paramagnetic NMR
   Boris Wezisla          : Elementary symmetry handling
   Frank Wennmohs         : Technical directorship


 We gratefully acknowledge several colleagues who have allowed us to
 interface, adapt or use parts of their codes:
   Stefan Grimme, W. Hujo, H. Kruse,             : VdW corrections, initial TS optimization,
                  C. Bannwarth                     DFT functionals, gCP, sTDA/sTD-DF
   Ed Valeev, F. Pavosevic, A. Kumar             : LibInt (2-el integral package), F12 methods
   Garnet Chan, S. Sharma, J. Yang, R. Olivares  : DMRG
   Ulf Ekstrom                                   : XCFun DFT Library
   Mihaly Kallay                                 : mrcc  (arbitrary order and MRCC methods)
   Andreas Klamt, Michael Diedenhofen            : otool_cosmo (COSMO solvation model)
   Jiri Pittner, Ondrej Demel                    : Mk-CCSD
   Frank Weinhold                                : gennbo (NPA and NBO analysis)
   Christopher J. Cramer and Donald G. Truhlar   : smd solvation model
   Lars Goerigk                                  : TD-DFT with DH, B97 family of functionals
   V. Asgeirsson, H. Jonsson                     : NEB implementation
   FAccTs GmbH                                   : IRC, NEB, NEB-TS, Multilevel, MM, QM/MM, CI optimization
   S Lehtola, MJT Oliveira, MAL Marques          : LibXC Library


 Your calculation uses the libint2 library for the computation of 2-el integrals
 For citations please refer to: http://libint.valeyev.net

 Your ORCA version has been built with support for libXC version: 4.2.3
 For citations please refer to: https://tddft.org/programs/libxc/

 This ORCA versions uses:
   CBLAS   interface :  Fast vector & matrix operations
   LAPACKE interface :  Fast linear algebra routines
   SCALAPACK package :  Parallel linear algebra routines


Your calculation utilizes the atom-pairwise dispersion correction
with the zero-damping scheme (D30)
Cite in your paper:
S.Grimme, J.Antony, S.Ehrlich and H.Krieg, J.Chem.Phys., 132, (2010), 154104 
   

XCFun DFT library Copyright 2009-2010 Ulf Ekstrom and contributors.
See http://admol.org/xcfun for more information. This is free soft-
ware; see the source code for copying conditions. There is ABSOLUTELY
NO WARRANTY; not even for MERCHANTABILITY or FITNESS FOR A PARTICULAR
PURPOSE. For details see the documentation. Scientific users of this 
library should cite U. Ekstrom, L. Visscher, R. Bast, A. J. Thorvald-
sen and K. Ruud; J.Chem.Theor.Comp. 2010, DOI: 10.1021/ct100117s
XCFun Version 0.99 
----- Orbital basis set information -----
Your calculation utilizes the basis: def2-SVP
   F. Weigend and R. Ahlrichs, Phys. Chem. Chem. Phys. 7, 3297 (2005).

================================================================================
                                        WARNINGS
                       Please study these warnings very carefully!
================================================================================


INFO   : the flag for use of LIBINT has been found!

================================================================================
                                       INPUT FILE
================================================================================
NAME = config_2667.inp
|  1> ! wB97X-D3 SP def2-SVP
|  2> %pal
|  3> nprocs 24
|  4> end
|  5> 
|  6> * xyz 0 1
|  7> S 	 -136.683 	 7.95184 	 -12.8715 	 
|  8> C 	 -136.71 	 8.34149 	 -11.1482 	 
|  9> C 	 -136.313 	 9.60848 	 -10.9034 	 
| 10> C 	 -135.804 	 10.2073 	 -12.1067 	 
| 11> C 	 -135.987 	 9.47202 	 -13.2312 	 
| 12> H 	 -135.269 	 11.1245 	 -12.2812 	 
| 13> C 	 -136.189 	 10.3011 	 -9.52039 	 
| 14> H 	 -135.15 	 10.2644 	 -9.11815 	 
| 15> H 	 -136.681 	 9.62045 	 -8.86904 	 
| 16> C 	 -136.778 	 11.7289 	 -9.418 	 
| 17> H 	 -136.627 	 12.1467 	 -8.37849 	 
| 18> H 	 -136.19 	 12.1998 	 -10.1747 	 
| 19> C 	 -138.316 	 11.9122 	 -9.74051 	 
| 20> H 	 -138.577 	 11.6839 	 -10.7478 	 
| 21> H 	 -138.868 	 11.2169 	 -9.07475 	 
| 22> H 	 -138.671 	 12.8421 	 -9.54978 	 
| 23> S 	 -135.212 	 11.4648 	 -14.9927 	 
| 24> C 	 -134.514 	 10.9556 	 -16.509 	 
| 25> C 	 -134.645 	 9.58158 	 -16.7799 	 
| 26> C 	 -135.061 	 8.87234 	 -15.6463 	 
| 27> C 	 -135.375 	 9.70035 	 -14.5368 	 
| 28> H 	 -134.349 	 9.11563 	 -17.6982 	 
| 29> C 	 -135.158 	 7.31468 	 -15.5931 	 
| 30> H 	 -136.156 	 6.88461 	 -15.5449 	 
| 31> H 	 -134.738 	 6.95327 	 -14.6368 	 
| 32> C 	 -134.469 	 6.55843 	 -16.7698 	 
| 33> H 	 -133.568 	 7.19715 	 -16.8756 	 
| 34> H 	 -135.142 	 6.68959 	 -17.6038 	 
| 35> C 	 -134.038 	 5.09837 	 -16.561 	 
| 36> H 	 -133.275 	 5.03701 	 -15.8469 	 
| 37> H 	 -133.558 	 4.70259 	 -17.4612 	 
| 38> H 	 -134.96 	 4.49978 	 -16.3172 	 
| 39> H 	 -136.975 	 7.61002 	 -10.3575 	 
| 40> H 	 -134.036 	 11.5455 	 -17.219 	 
| 41> *
| 42> 
| 43>                          ****END OF INPUT****
================================================================================

                       ****************************
                       * Single Point Calculation *
                       ****************************

---------------------------------
CARTESIAN COORDINATES (ANGSTROEM)
---------------------------------
  S    -136.683000    7.951840  -12.871500
  C    -136.710000    8.341490  -11.148200
  C    -136.313000    9.608480  -10.903400
  C    -135.804000   10.207300  -12.106700
  C    -135.987000    9.472020  -13.231200
  H    -135.269000   11.124500  -12.281200
  C    -136.189000   10.301100   -9.520390
  H    -135.150000   10.264400   -9.118150
  H    -136.681000    9.620450   -8.869040
  C    -136.778000   11.728900   -9.418000
  H    -136.627000   12.146700   -8.378490
  H    -136.190000   12.199800  -10.174700
  C    -138.316000   11.912200   -9.740510
  H    -138.577000   11.683900  -10.747800
  H    -138.868000   11.216900   -9.074750
  H    -138.671000   12.842100   -9.549780
  S    -135.212000   11.464800  -14.992700
  C    -134.514000   10.955600  -16.509000
  C    -134.645000    9.581580  -16.779900
  C    -135.061000    8.872340  -15.646300
  C    -135.375000    9.700350  -14.536800
  H    -134.349000    9.115630  -17.698200
  C    -135.158000    7.314680  -15.593100
  H    -136.156000    6.884610  -15.544900
  H    -134.738000    6.953270  -14.636800
  C    -134.469000    6.558430  -16.769800
  H    -133.568000    7.197150  -16.875600
  H    -135.142000    6.689590  -17.603800
  C    -134.038000    5.098370  -16.561000
  H    -133.275000    5.037010  -15.846900
  H    -133.558000    4.702590  -17.461200
  H    -134.960000    4.499780  -16.317200
  H    -136.975000    7.610020  -10.357500
  H    -134.036000   11.545500  -17.219000

----------------------------
CARTESIAN COORDINATES (A.U.)
----------------------------
  NO LB      ZA    FRAG     MASS         X           Y           Z
   0 S    16.0000    0    32.060  -258.293437   15.026800  -24.323610
   1 C     6.0000    0    12.011  -258.344460   15.763132  -21.067045
   2 C     6.0000    0    12.011  -257.594238   18.157396  -20.604440
   3 C     6.0000    0    12.011  -256.632368   19.289002  -22.878347
   4 C     6.0000    0    12.011  -256.978188   17.899524  -25.003344
   5 H     1.0000    0     1.008  -255.621364   21.022258  -23.208105
   6 C     6.0000    0    12.011  -257.359912   19.466258  -17.990930
   7 H     1.0000    0     1.008  -255.396487   19.396905  -17.230806
   8 H     1.0000    0     1.008  -258.289658   18.180016  -16.760057
   9 C     6.0000    0    12.011  -258.472961   22.164409  -17.797441
  10 H     1.0000    0     1.008  -258.187612   22.953936  -15.833052
  11 H     1.0000    0     1.008  -257.361802   23.054281  -19.227396
  12 C     6.0000    0    12.011  -261.379360   22.510796  -18.406896
  13 H     1.0000    0     1.008  -261.872578   22.079371  -20.310399
  14 H     1.0000    0     1.008  -262.422489   21.196869  -17.148792
  15 H     1.0000    0     1.008  -262.050213   24.268052  -18.046469
  16 S    16.0000    0    32.060  -255.513650   21.665332  -28.332097
  17 C     6.0000    0    12.011  -254.194621   20.703084  -31.197489
  18 C     6.0000    0    12.011  -254.442175   18.106562  -31.709416
  19 C     6.0000    0    12.011  -255.228301   16.766293  -29.567222
  20 C     6.0000    0    12.011  -255.821675   18.331005  -27.470571
  21 H     1.0000    0     1.008  -253.882816   17.226044  -33.444751
  22 C     6.0000    0    12.011  -255.411605   13.822742  -29.466689
  23 H     1.0000    0     1.008  -257.297551   13.010027  -29.375604
  24 H     1.0000    0     1.008  -254.617920   13.139776  -27.659543
  25 C     6.0000    0    12.011  -254.109584   12.393637  -31.690329
  26 H     1.0000    0     1.008  -252.406940   13.600642  -31.890262
  27 H     1.0000    0     1.008  -255.381369   12.641493  -33.266361
  28 C     6.0000    0    12.011  -253.295112    9.634523  -31.295755
  29 H     1.0000    0     1.008  -251.853250    9.518569  -29.946301
  30 H     1.0000    0     1.008  -252.388043    8.886607  -32.996886
  31 H     1.0000    0     1.008  -255.037439    8.503352  -30.835039
  32 H     1.0000    0     1.008  -258.845237   14.380854  -19.572838
  33 H     1.0000    0     1.008  -253.291332   21.817833  -32.539194

--------------------------------
INTERNAL COORDINATES (ANGSTROEM)
--------------------------------
 S      0   0   0     0.000000000000     0.00000000     0.00000000
 C      1   0   0     1.767008492481     0.00000000     0.00000000
 C      2   1   0     1.350110995474   112.28896885     0.00000000
 C      3   2   1     1.437218592421   110.08004299   351.86083752
 C      4   3   2     1.355959412519   114.87227811     8.22691887
 H      4   3   2     1.076072065431   131.83490844   190.67172555
 C      3   2   1     1.551713609046   127.15554966   180.87587296
 H      7   3   2     1.114748809194   112.41986158    96.09654633
 H      7   3   2     1.062828887921   102.90706837   348.36449237
 C      7   3   2     1.547907475303   116.12123467   225.69757347
 H     10   7   3     1.130459587999   110.54272304   180.62728160
 H     10   7   3     1.067747957151    98.64881535   300.98566458
 C     10   7   3     1.582104797445   117.59963732    58.84722605
 H     13  10   7     1.065305136616   113.95936563   296.00940007
 H     13  10   7     1.109676740137   106.77892757    55.32355120
 H     13  10   7     1.013467780889   114.10807527   172.98203306
 S      6   4   3     2.733365204286   106.10222805   190.06964982
 C     17   6   4     1.745180314466   146.50300131   285.33603297
 C     18  17   6     1.406584078681   114.52599636    56.28878105
 C     19  18  17     1.400402205654   111.49955155   347.52673687
 C     20  19  18     1.419572756184   113.76404168     5.65400636
 H     19  18  17     1.071447755376   124.34310901   174.61416431
 C     20  19  18     1.561583784368   123.45016601   186.31353929
 H     23  20  19     1.087790165841   116.92773941   249.62389587
 H     23  20  19     1.105227070832   109.39333444   136.41683400
 C     23  20  19     1.559249163059   115.50772336    12.95158871
 H     26  23  20     1.109485411531    98.71930135    39.00729987
 H     26  23  20     1.079670294859   104.39359937   284.29284720
 C     26  23  20     1.536598074839   118.83225734   156.91559224
 H     29  26  23     1.046839462191   110.66028316   294.07965509
 H     29  26  23     1.094258583882   110.78874745   180.81730914
 H     29  26  23     1.125980651743   107.75106863    60.21739133
 H      2   1   3     1.109269963039   123.60189829   182.84729629
 H     18  17   6     1.039502770559   127.71822934   235.44401574

---------------------------
INTERNAL COORDINATES (A.U.)
---------------------------
 S      0   0   0     0.000000000000     0.00000000     0.00000000
 C      1   0   0     3.339162127102     0.00000000     0.00000000
 C      2   1   0     2.551340031842   112.28896885     0.00000000
 C      3   2   1     2.715949534255   110.08004299   351.86083752
 C      4   3   2     2.562391938374   114.87227811     8.22691887
 H      4   3   2     2.033481504027   131.83490844   190.67172555
 C      3   2   1     2.932313759376   127.15554966   180.87587296
 H      7   3   2     2.106569957492   112.41986158    96.09654633
 H      7   3   2     2.008455525391   102.90706837   348.36449237
 C      7   3   2     2.925121208973   116.12123467   225.69757347
 H     10   7   3     2.136259026785   110.54272304   180.62728160
 H     10   7   3     2.017751219069    98.64881535   300.98566458
 C     10   7   3     2.989744782335   117.59963732    58.84722605
 H     13  10   7     2.013134957263   113.95936563   296.00940007
 H     13  10   7     2.096985136041   106.77892757    55.32355120
 H     13  10   7     1.915176551433   114.10807527   172.98203306
 S      6   4   3     5.165311660090   106.10222805   190.06964982
 C     17   6   4     3.297912848651   146.50300131   285.33603297
 C     18  17   6     2.658058693042   114.52599636    56.28878105
 C     19  18  17     2.646376646025   111.49955155   347.52673687
 C     20  19  18     2.682603736364   113.76404168     5.65400636
 H     19  18  17     2.024742824465   124.34310901   174.61416431
 C     20  19  18     2.950965687627   123.45016601   186.31353929
 H     23  20  19     2.055625504612   116.92773941   249.62389587
 H     23  20  19     2.088576479669   109.39333444   136.41683400
 C     23  20  19     2.946553892727   115.50772336    12.95158871
 H     26  23  20     2.096623577374    98.71930135    39.00729987
 H     26  23  20     2.040281172213   104.39359937   284.29284720
 C     26  23  20     2.903749539357   118.83225734   156.91559224
 H     29  26  23     1.978239889722   110.66028316   294.07965509
 H     29  26  23     2.067849043230   110.78874745   180.81730914
 H     29  26  23     2.127795063889   107.75106863    60.21739133
 H      2   1   3     2.096216438728   123.60189829   182.84729629
 H     18  17   6     1.964375551809   127.71822934   235.44401574

---------------------
BASIS SET INFORMATION
---------------------
There are 3 groups of distinct atoms

 Group   1 Type S   : 10s7p1d contracted to 4s3p1d pattern {5311/511/1}
 Group   2 Type C   : 7s4p1d contracted to 3s2p1d pattern {511/31/1}
 Group   3 Type H   : 4s1p contracted to 2s1p pattern {31/1}

Atom   0S    basis set group =>   1
Atom   1C    basis set group =>   2
Atom   2C    basis set group =>   2
Atom   3C    basis set group =>   2
Atom   4C    basis set group =>   2
Atom   5H    basis set group =>   3
Atom   6C    basis set group =>   2
Atom   7H    basis set group =>   3
Atom   8H    basis set group =>   3
Atom   9C    basis set group =>   2
Atom  10H    basis set group =>   3
Atom  11H    basis set group =>   3
Atom  12C    basis set group =>   2
Atom  13H    basis set group =>   3
Atom  14H    basis set group =>   3
Atom  15H    basis set group =>   3
Atom  16S    basis set group =>   1
Atom  17C    basis set group =>   2
Atom  18C    basis set group =>   2
Atom  19C    basis set group =>   2
Atom  20C    basis set group =>   2
Atom  21H    basis set group =>   3
Atom  22C    basis set group =>   2
Atom  23H    basis set group =>   3
Atom  24H    basis set group =>   3
Atom  25C    basis set group =>   2
Atom  26H    basis set group =>   3
Atom  27H    basis set group =>   3
Atom  28C    basis set group =>   2
Atom  29H    basis set group =>   3
Atom  30H    basis set group =>   3
Atom  31H    basis set group =>   3
Atom  32H    basis set group =>   3
Atom  33H    basis set group =>   3


           ************************************************************
           *        Program running with 24 parallel MPI-processes    *
           *              working on a common directory               *
           ************************************************************
------------------------------------------------------------------------------
                           ORCA GTO INTEGRAL CALCULATION
------------------------------------------------------------------------------

                         BASIS SET STATISTICS AND STARTUP INFO

 # of primitive gaussian shells          ...  294
 # of primitive gaussian functions       ...  534
 # of contracted shells                  ...  154
 # of contracted basis functions         ...  322
 Highest angular momentum                ...    2
 Maximum contraction depth               ...    5
 Integral package used                   ... LIBINT
 Integral threshhold            Thresh   ...  1.000e-10
 Primitive cut-off              TCut     ...  1.000e-11


------------------------------ INTEGRAL EVALUATION ----------------------------


 * One electron integrals 
 Pre-screening matrix                    ... done
 Shell pair data                         ... done (   0.003 sec)



           ************************************************************
           *        Program running with 24 parallel MPI-processes    *
           *              working on a common directory               *
           ************************************************************
-------------------------------------------------------------------------------
                                 ORCA SCF
-------------------------------------------------------------------------------

------------
SCF SETTINGS
------------
Hamiltonian:
 Density Functional     Method          .... DFT(GTOs)
 Exchange Functional    Exchange        .... WB97X-D3
 Correlation Functional Correlation     .... WB97X-D3
 Gradients option       PostSCFGGA      .... off
 Hybrid DFT is turned on
   Fraction HF Exchange ScalHFX         ....  0.195728
   Scaling of DF-GGA-X  ScalDFX         ....  0.000000
   Scaling of DF-GGA-C  ScalDFC         ....  1.000000
   Scaling of DF-LDA-C  ScalLDAC        ....  1.000000
   Perturbative correction              ....  0.000000
   Density functional embedding theory  .... OFF
 Long-range corrected/Screened/Range-Separated Hybrid DFT is turned on
   Amount of maximum screened exact exchange              ....  0.804272
   Range separation parameter mu (erf(mu*r12)/r12)        ....  0.250000


General Settings:
 Integral files         IntName         .... config_2667
 Hartree-Fock type      HFTyp           .... RHF
 Total Charge           Charge          ....    0
 Multiplicity           Mult            ....    1
 Number of Electrons    NEL             ....  134
 Basis Dimension        Dim             ....  322
 Nuclear Repulsion      ENuc            ....   1270.9833495843 Eh

Convergence Acceleration:
 DIIS                   CNVDIIS         .... on
   Start iteration      DIISMaxIt       ....    12
   Startup error        DIISStart       ....  0.200000
   # of expansion vecs  DIISMaxEq       ....     5
   Bias factor          DIISBfac        ....   1.050
   Max. coefficient     DIISMaxC        ....  10.000
 Newton-Raphson         CNVNR           .... off
 SOSCF                  CNVSOSCF        .... on
   Start iteration      SOSCFMaxIt      ....   150
   Startup grad/error   SOSCFStart      ....  0.003300
 Level Shifting         CNVShift        .... on
   Level shift para.    LevelShift      ....    0.2500
   Turn off err/grad.   ShiftErr        ....    0.0010
 Zerner damping         CNVZerner       .... off
 Static damping         CNVDamp         .... on
   Fraction old density DampFac         ....    0.7000
   Max. Damping (<1)    DampMax         ....    0.9800
   Min. Damping (>=0)   DampMin         ....    0.0000
   Turn off err/grad.   DampErr         ....    0.1000
 Fernandez-Rico         CNVRico         .... off

SCF Procedure:
 Maximum # iterations   MaxIter         ....   125
 SCF integral mode      SCFMode         .... Direct
   Integral package                     .... LIBINT
 Reset frequency        DirectResetFreq ....    20
 Integral Threshold     Thresh          ....  1.000e-10 Eh
 Primitive CutOff       TCut            ....  1.000e-11 Eh

Convergence Tolerance:
 Convergence Check Mode ConvCheckMode   .... Total+1el-Energy
 Convergence forced     ConvForced      .... 0
 Energy Change          TolE            ....  1.000e-06 Eh
 1-El. energy change                    ....  1.000e-03 Eh
 Orbital Gradient       TolG            ....  5.000e-05
 Orbital Rotation angle TolX            ....  5.000e-05
 DIIS Error             TolErr          ....  1.000e-06


Diagonalization of the overlap matrix:
Smallest eigenvalue                        ... 6.414e-04
Time for diagonalization                   ...    0.014 sec
Threshold for overlap eigenvalues          ... 1.000e-08
Number of eigenvalues below threshold      ... 0
Time for construction of square roots      ...    0.026 sec
Total time needed                          ...    0.041 sec

-------------------
DFT GRID GENERATION
-------------------

General Integration Accuracy     IntAcc      ...  4.340
Radial Grid Type                 RadialGrid  ... Gauss-Chebyshev
Angular Grid (max. acc.)         AngularGrid ... Lebedev-110
Angular grid pruning method      GridPruning ... 3 (G Style)
Weight generation scheme         WeightScheme... Becke
Basis function cutoff            BFCut       ...    1.0000e-10
Integration weight cutoff        WCut        ...    1.0000e-14
Grids for H and He will be reduced by one unit

# of grid points (after initial pruning)     ...  41088 (   0.0 sec)
# of grid points (after weights+screening)   ...  37102 (   0.0 sec)
nearest neighbour list constructed           ...    0.0 sec
Grid point re-assignment to atoms done       ...    0.0 sec
Grid point division into batches done        ...    0.0 sec
Reduced shell lists constructed in    0.1 sec

Total number of grid points                  ...    37102
Total number of batches                      ...      594
Average number of points per batch           ...       62
Average number of grid points per atom       ...     1091
Average number of shells per batch           ...    83.42 (54.17%)
Average number of basis functions per batch  ...   165.42 (51.37%)
Average number of large shells per batch     ...    55.69 (66.76%)
Average number of large basis fcns per batch ...   112.00 (67.71%)
Maximum spatial batch extension              ...  18.94,  9.33,  9.08 au
Average spatial batch extension              ...   0.16,  0.12,  0.11 au

Time for grid setup =    0.152 sec

------------------------------
INITIAL GUESS: MODEL POTENTIAL
------------------------------
Loading Hartree-Fock densities                     ... done
Calculating cut-offs                               ... done
Setting up the integral package                    ... done
Initializing the effective Hamiltonian             ... done
Starting the Coulomb interaction                   ... done (   0.0 sec)
Reading the grid                                   ... done
Mapping shells                                     ... done
Starting the XC term evaluation                    ... done (   0.0 sec)
  promolecular density results
     # of electrons  =    133.976401047
     EX              =   -126.699002738
     EC              =     -4.617103930
     EX+EC           =   -131.316106667
Transforming the Hamiltonian                       ... done (   0.0 sec)
Diagonalizing the Hamiltonian                      ... done (   0.0 sec)
Back transforming the eigenvectors                 ... done (   0.0 sec)
Now organizing SCF variables                       ... done
                      ------------------
                      INITIAL GUESS DONE (   0.3 sec)
                      ------------------
--------------
SCF ITERATIONS
--------------
ITER       Energy         Delta-E        Max-DP      RMS-DP      [F,P]     Damp
               ***  Starting incremental Fock matrix formation  ***
  0  -1339.4204428560   0.000000000000 0.06675833  0.00150895  0.1651837 0.7000
  1  -1339.5989071832  -0.178464327162 0.04486359  0.00111553  0.1003134 0.7000
                               ***Turning on DIIS***
  2  -1339.6881080047  -0.089200821526 0.08675272  0.00215375  0.0525502 0.0000
  3  -1339.8244872045  -0.136379199827 0.04782790  0.00088148  0.0401993 0.0000
  4  -1339.8516337355  -0.027146530954 0.00695892  0.00019936  0.0073107 0.0000
                      *** Initiating the SOSCF procedure ***
                           *** Shutting down DIIS ***
                      *** Re-Reading the Fockian *** 
                      *** Removing any level shift *** 
ITER      Energy       Delta-E        Grad      Rot      Max-DP    RMS-DP
  5  -1339.85254847  -0.0009147359  0.002048  0.002048  0.003729  0.000099
               *** Restarting incremental Fock matrix formation ***
  6  -1339.85274695  -0.0001984796  0.001590  0.004466  0.002855  0.000070
  7  -1339.85282316  -0.0000762083  0.000809  0.005573  0.003897  0.000076
  8  -1339.85284435  -0.0000211954  0.000575  0.001148  0.000929  0.000024
  9  -1339.85285125  -0.0000068950  0.000141  0.000446  0.000353  0.000009
 10  -1339.85285183  -0.0000005753  0.000068  0.000247  0.000170  0.000004
                  ***Gradient check signals convergence***
              ***Rediagonalizing the Fockian in SOSCF/NRSCF***

               *****************************************************
               *                     SUCCESS                       *
               *           SCF CONVERGED AFTER  11 CYCLES          *
               *****************************************************

Setting up the final grid:

General Integration Accuracy     IntAcc      ...  4.670
Radial Grid Type                 RadialGrid  ... Gauss-Chebyshev
Angular Grid (max. acc.)         AngularGrid ... Lebedev-302
Angular grid pruning method      GridPruning ... 3 (G Style)
Weight generation scheme         WeightScheme... Becke
Basis function cutoff            BFCut       ...    1.0000e-10
Integration weight cutoff        WCut        ...    1.0000e-14
Grids for H and He will be reduced by one unit

# of grid points (after initial pruning)     ... 161752 (   0.0 sec)
# of grid points (after weights+screening)   ... 143338 (   0.1 sec)
nearest neighbour list constructed           ...    0.0 sec
Grid point re-assignment to atoms done       ...    0.0 sec
Grid point division into batches done        ...    0.5 sec
Reduced shell lists constructed in    0.5 sec

Total number of grid points                  ...   143338
Total number of batches                      ...     2255
Average number of points per batch           ...       63
Average number of grid points per atom       ...     4216
Average number of shells per batch           ...    78.58 (51.03%)
Average number of basis functions per batch  ...   154.96 (48.12%)
Average number of large shells per batch     ...    50.05 (63.70%)
Average number of large basis fcns per batch ...   100.20 (64.66%)
Maximum spatial batch extension              ...  11.01, 14.19,  8.43 au
Average spatial batch extension              ...   0.08,  0.08,  0.07 au

Final grid set up in    0.8 sec
Final integration                            ... done (   0.2 sec)
Change in XC energy                          ...     0.007682385
Integrated number of electrons               ...   133.999939029
Previous integrated no of electrons          ...   133.995974267

----------------
TOTAL SCF ENERGY
----------------

Total Energy       :        -1339.84516970 Eh          -36459.04061 eV

Components:
Nuclear Repulsion  :         1270.98334958 Eh           34585.21522 eV
Electronic Energy  :        -2610.82851928 Eh          -71044.25583 eV
One Electron Energy:        -4358.52796744 Eh         -118601.57558 eV
Two Electron Energy:         1747.69944815 Eh           47557.31975 eV

Virial components:
Potential Energy   :        -2671.28528065 Eh          -72689.36794 eV
Kinetic Energy     :         1331.44011095 Eh           36230.32733 eV
Virial Ratio       :            2.00631276


DFT components:
N(Alpha)           :       66.999969514514 electrons
N(Beta)            :       66.999969514514 electrons
N(Total)           :      133.999939029027 electrons
E(XC)              :      -94.243199305088 Eh       
DFET-embed. en.    :        0.000000000000 Eh       

---------------
SCF CONVERGENCE
---------------

  Last Energy change         ...   -2.6055e-07  Tolerance :   1.0000e-06
  Last MAX-Density change    ...    3.4429e-05  Tolerance :   1.0000e-05
  Last RMS-Density change    ...    9.7049e-07  Tolerance :   1.0000e-06
  Last Orbital Gradient      ...    1.0458e-05  Tolerance :   5.0000e-05
  Last Orbital Rotation      ...    4.7068e-05  Tolerance :   5.0000e-05

             **** THE GBW FILE WAS UPDATED (config_2667.gbw) ****
             **** DENSITY FILE WAS UPDATED (config_2667.scfp) ****
             **** ENERGY FILE WAS UPDATED (config_2667.en.tmp) ****
             **** THE GBW FILE WAS UPDATED (config_2667.gbw) ****
             **** DENSITY FILE WAS UPDATED (config_2667.scfp) ****
----------------
ORBITAL ENERGIES
----------------

  NO   OCC          E(Eh)            E(eV) 
   0   2.0000     -88.972072     -2421.0532 
   1   2.0000     -88.964187     -2420.8386 
   2   2.0000     -10.335266      -281.2369 
   3   2.0000     -10.323456      -280.9155 
   4   2.0000     -10.317671      -280.7581 
   5   2.0000     -10.314818      -280.6805 
   6   2.0000     -10.311977      -280.6032 
   7   2.0000     -10.303213      -280.3647 
   8   2.0000     -10.295287      -280.1490 
   9   2.0000     -10.294864      -280.1375 
  10   2.0000     -10.294119      -280.1172 
  11   2.0000     -10.293055      -280.0883 
  12   2.0000     -10.288072      -279.9527 
  13   2.0000     -10.287274      -279.9310 
  14   2.0000     -10.281653      -279.7780 
  15   2.0000     -10.269242      -279.4403 
  16   2.0000      -8.085275      -220.0115 
  17   2.0000      -8.079207      -219.8464 
  18   2.0000      -6.043755      -164.4589 
  19   2.0000      -6.040163      -164.3612 
  20   2.0000      -6.037740      -164.2953 
  21   2.0000      -6.036021      -164.2485 
  22   2.0000      -6.033727      -164.1861 
  23   2.0000      -6.029855      -164.0807 
  24   2.0000      -1.009330       -27.4653 
  25   2.0000      -0.981262       -26.7015 
  26   2.0000      -0.905965       -24.6526 
  27   2.0000      -0.904234       -24.6055 
  28   2.0000      -0.868539       -23.6342 
  29   2.0000      -0.853696       -23.2302 
  30   2.0000      -0.840338       -22.8668 
  31   2.0000      -0.812870       -22.1193 
  32   2.0000      -0.788703       -21.4617 
  33   2.0000      -0.777488       -21.1565 
  34   2.0000      -0.709213       -19.2987 
  35   2.0000      -0.702373       -19.1125 
  36   2.0000      -0.688760       -18.7421 
  37   2.0000      -0.662217       -18.0198 
  38   2.0000      -0.634491       -17.2654 
  39   2.0000      -0.617875       -16.8132 
  40   2.0000      -0.601736       -16.3741 
  41   2.0000      -0.570121       -15.5138 
  42   2.0000      -0.564197       -15.3526 
  43   2.0000      -0.546365       -14.8674 
  44   2.0000      -0.543391       -14.7864 
  45   2.0000      -0.518180       -14.1004 
  46   2.0000      -0.516544       -14.0559 
  47   2.0000      -0.510663       -13.8958 
  48   2.0000      -0.505560       -13.7570 
  49   2.0000      -0.492543       -13.4028 
  50   2.0000      -0.488522       -13.2933 
  51   2.0000      -0.479543       -13.0490 
  52   2.0000      -0.473613       -12.8877 
  53   2.0000      -0.466784       -12.7019 
  54   2.0000      -0.463678       -12.6173 
  55   2.0000      -0.456170       -12.4130 
  56   2.0000      -0.445977       -12.1357 
  57   2.0000      -0.441669       -12.0184 
  58   2.0000      -0.430676       -11.7193 
  59   2.0000      -0.424178       -11.5425 
  60   2.0000      -0.419729       -11.4214 
  61   2.0000      -0.412254       -11.2180 
  62   2.0000      -0.403042       -10.9673 
  63   2.0000      -0.356208        -9.6929 
  64   2.0000      -0.338537        -9.2121 
  65   2.0000      -0.331659        -9.0249 
  66   2.0000      -0.281053        -7.6478 
  67   0.0000       0.017503         0.4763 
  68   0.0000       0.082264         2.2385 
  69   0.0000       0.098686         2.6854 
  70   0.0000       0.122654         3.3376 
  71   0.0000       0.125471         3.4142 
  72   0.0000       0.144626         3.9355 
  73   0.0000       0.146582         3.9887 
  74   0.0000       0.160923         4.3789 
  75   0.0000       0.168281         4.5792 
  76   0.0000       0.173173         4.7123 
  77   0.0000       0.181771         4.9462 
  78   0.0000       0.189367         5.1529 
  79   0.0000       0.195133         5.3098 
  80   0.0000       0.201369         5.4795 
  81   0.0000       0.205057         5.5799 
  82   0.0000       0.213382         5.8064 
  83   0.0000       0.215419         5.8618 
  84   0.0000       0.221640         6.0311 
  85   0.0000       0.229906         6.2561 
  86   0.0000       0.238744         6.4965 
  87   0.0000       0.242181         6.5901 
  88   0.0000       0.249102         6.7784 
  89   0.0000       0.251633         6.8473 
  90   0.0000       0.260580         7.0907 
  91   0.0000       0.266853         7.2614 
  92   0.0000       0.276826         7.5328 
  93   0.0000       0.298511         8.1229 
  94   0.0000       0.301478         8.2036 
  95   0.0000       0.305144         8.3034 
  96   0.0000       0.317326         8.6349 
  97   0.0000       0.330407         8.9908 
  98   0.0000       0.348490         9.4829 
  99   0.0000       0.356662         9.7053 
 100   0.0000       0.378030        10.2867 
 101   0.0000       0.389397        10.5960 
 102   0.0000       0.409545        11.1443 
 103   0.0000       0.433721        11.8022 
 104   0.0000       0.438248        11.9253 
 105   0.0000       0.444952        12.1078 
 106   0.0000       0.454229        12.3602 
 107   0.0000       0.470751        12.8098 
 108   0.0000       0.488410        13.2903 
 109   0.0000       0.495679        13.4881 
 110   0.0000       0.503774        13.7084 
 111   0.0000       0.519849        14.1458 
 112   0.0000       0.524305        14.2671 
 113   0.0000       0.526718        14.3327 
 114   0.0000       0.531977        14.4758 
 115   0.0000       0.534526        14.5452 
 116   0.0000       0.545885        14.8543 
 117   0.0000       0.553330        15.0569 
 118   0.0000       0.557310        15.1652 
 119   0.0000       0.563523        15.3342 
 120   0.0000       0.578451        15.7404 
 121   0.0000       0.586181        15.9508 
 122   0.0000       0.603867        16.4321 
 123   0.0000       0.605971        16.4893 
 124   0.0000       0.613878        16.7045 
 125   0.0000       0.628522        17.1029 
 126   0.0000       0.637477        17.3466 
 127   0.0000       0.646263        17.5857 
 128   0.0000       0.650859        17.7108 
 129   0.0000       0.662023        18.0146 
 130   0.0000       0.676007        18.3951 
 131   0.0000       0.681365        18.5409 
 132   0.0000       0.688612        18.7381 
 133   0.0000       0.697009        18.9666 
 134   0.0000       0.703091        19.1321 
 135   0.0000       0.708715        19.2851 
 136   0.0000       0.716511        19.4973 
 137   0.0000       0.728145        19.8138 
 138   0.0000       0.735242        20.0069 
 139   0.0000       0.736572        20.0431 
 140   0.0000       0.742253        20.1977 
 141   0.0000       0.748236        20.3605 
 142   0.0000       0.750222        20.4146 
 143   0.0000       0.759853        20.6767 
 144   0.0000       0.766514        20.8579 
 145   0.0000       0.767832        20.8938 
 146   0.0000       0.770810        20.9748 
 147   0.0000       0.779467        21.2104 
 148   0.0000       0.781872        21.2758 
 149   0.0000       0.783820        21.3288 
 150   0.0000       0.788803        21.4644 
 151   0.0000       0.793286        21.5864 
 152   0.0000       0.799639        21.7593 
 153   0.0000       0.801407        21.8074 
 154   0.0000       0.804679        21.8964 
 155   0.0000       0.806877        21.9562 
 156   0.0000       0.812266        22.1029 
 157   0.0000       0.818207        22.2645 
 158   0.0000       0.821958        22.3666 
 159   0.0000       0.831168        22.6172 
 160   0.0000       0.837497        22.7895 
 161   0.0000       0.839431        22.8421 
 162   0.0000       0.843465        22.9519 
 163   0.0000       0.847445        23.0601 
 164   0.0000       0.850970        23.1561 
 165   0.0000       0.859585        23.3905 
 166   0.0000       0.865549        23.5528 
 167   0.0000       0.873022        23.7561 
 168   0.0000       0.882053        24.0019 
 169   0.0000       0.894905        24.3516 
 170   0.0000       0.903201        24.5774 
 171   0.0000       0.916561        24.9409 
 172   0.0000       0.924862        25.1668 
 173   0.0000       0.937252        25.5039 
 174   0.0000       0.952997        25.9324 
 175   0.0000       0.960085        26.1252 
 176   0.0000       0.986961        26.8566 
 177   0.0000       0.998516        27.1710 
 178   0.0000       1.012153        27.5421 
 179   0.0000       1.042992        28.3812 
 180   0.0000       1.052487        28.6396 
 181   0.0000       1.078895        29.3582 
 182   0.0000       1.087283        29.5865 
 183   0.0000       1.090162        29.6648 
 184   0.0000       1.129538        30.7363 
 185   0.0000       1.145906        31.1817 
 186   0.0000       1.155247        31.4359 
 187   0.0000       1.167348        31.7652 
 188   0.0000       1.177302        32.0360 
 189   0.0000       1.199363        32.6363 
 190   0.0000       1.213488        33.0207 
 191   0.0000       1.243031        33.8246 
 192   0.0000       1.262321        34.3495 
 193   0.0000       1.274681        34.6858 
 194   0.0000       1.280425        34.8421 
 195   0.0000       1.294092        35.2140 
 196   0.0000       1.319735        35.9118 
 197   0.0000       1.326756        36.1029 
 198   0.0000       1.331443        36.2304 
 199   0.0000       1.359923        37.0054 
 200   0.0000       1.402372        38.1605 
 201   0.0000       1.411713        38.4147 
 202   0.0000       1.424929        38.7743 
 203   0.0000       1.451212        39.4895 
 204   0.0000       1.458548        39.6891 
 205   0.0000       1.471494        40.0414 
 206   0.0000       1.483006        40.3546 
 207   0.0000       1.494976        40.6804 
 208   0.0000       1.528996        41.6061 
 209   0.0000       1.588157        43.2159 
 210   0.0000       1.600404        43.5492 
 211   0.0000       1.606526        43.7158 
 212   0.0000       1.620525        44.0967 
 213   0.0000       1.630714        44.3740 
 214   0.0000       1.636427        44.5294 
 215   0.0000       1.657040        45.0903 
 216   0.0000       1.676533        45.6208 
 217   0.0000       1.683328        45.8057 
 218   0.0000       1.738436        47.3053 
 219   0.0000       1.758302        47.8458 
 220   0.0000       1.763583        47.9895 
 221   0.0000       1.775447        48.3124 
 222   0.0000       1.797150        48.9029 
 223   0.0000       1.807548        49.1859 
 224   0.0000       1.830334        49.8059 
 225   0.0000       1.834218        49.9116 
 226   0.0000       1.841066        50.0980 
 227   0.0000       1.852218        50.4014 
 228   0.0000       1.857120        50.5348 
 229   0.0000       1.860742        50.6334 
 230   0.0000       1.877301        51.0840 
 231   0.0000       1.885127        51.2969 
 232   0.0000       1.890791        51.4510 
 233   0.0000       1.894505        51.5521 
 234   0.0000       1.902526        51.7704 
 235   0.0000       1.907251        51.8990 
 236   0.0000       1.907550        51.9071 
 237   0.0000       1.919580        52.2344 
 238   0.0000       1.932827        52.5949 
 239   0.0000       1.940474        52.8030 
 240   0.0000       1.955617        53.2151 
 241   0.0000       1.961121        53.3648 
 242   0.0000       1.964671        53.4614 
 243   0.0000       1.972570        53.6764 
 244   0.0000       1.989857        54.1468 
 245   0.0000       1.999926        54.4207 
 246   0.0000       2.008412        54.6517 
 247   0.0000       2.014297        54.8118 
 248   0.0000       2.026297        55.1383 
 249   0.0000       2.029117        55.2151 
 250   0.0000       2.036758        55.4230 
 251   0.0000       2.053910        55.8897 
 252   0.0000       2.070545        56.3424 
 253   0.0000       2.081426        56.6385 
 254   0.0000       2.090477        56.8848 
 255   0.0000       2.099283        57.1244 
 256   0.0000       2.105269        57.2873 
 257   0.0000       2.130359        57.9700 
 258   0.0000       2.152329        58.5679 
 259   0.0000       2.159617        58.7662 
 260   0.0000       2.164450        58.8977 
 261   0.0000       2.187639        59.5287 
 262   0.0000       2.196205        59.7618 
 263   0.0000       2.203568        59.9621 
 264   0.0000       2.209936        60.1354 
 265   0.0000       2.235387        60.8280 
 266   0.0000       2.245418        61.1009 
 267   0.0000       2.264129        61.6101 
 268   0.0000       2.285157        62.1823 
 269   0.0000       2.300067        62.5880 
 270   0.0000       2.314447        62.9793 
 271   0.0000       2.325140        63.2703 
 272   0.0000       2.358212        64.1702 
 273   0.0000       2.394488        65.1573 
 274   0.0000       2.416355        65.7524 
 275   0.0000       2.429971        66.1229 
 276   0.0000       2.441984        66.4498 
 277   0.0000       2.454043        66.7779 
 278   0.0000       2.476220        67.3814 
 279   0.0000       2.484614        67.6098 
 280   0.0000       2.487601        67.6911 
 281   0.0000       2.501334        68.0648 
 282   0.0000       2.516376        68.4741 
 283   0.0000       2.537784        69.0566 
 284   0.0000       2.549523        69.3761 
 285   0.0000       2.563940        69.7683 
 286   0.0000       2.575667        70.0875 
 287   0.0000       2.588837        70.4458 
 288   0.0000       2.609216        71.0004 
 289   0.0000       2.613461        71.1159 
 290   0.0000       2.622834        71.3709 
 291   0.0000       2.655595        72.2624 
 292   0.0000       2.690944        73.2243 
 293   0.0000       2.707401        73.6721 
 294   0.0000       2.723401        74.1075 
 295   0.0000       2.731065        74.3161 
 296   0.0000       2.754540        74.9548 
 297   0.0000       2.775212        75.5174 
 298   0.0000       2.811616        76.5080 
 299   0.0000       2.827048        76.9279 
 300   0.0000       2.847544        77.4856 
 301   0.0000       2.876799        78.2817 
 302   0.0000       2.891160        78.6725 
 303   0.0000       2.940906        80.0261 
 304   0.0000       2.945093        80.1401 
 305   0.0000       2.971178        80.8499 
 306   0.0000       2.988242        81.3142 
 307   0.0000       2.999694        81.6258 
 308   0.0000       3.008557        81.8670 
 309   0.0000       3.058932        83.2378 
 310   0.0000       3.069144        83.5156 
 311   0.0000       3.084369        83.9299 
 312   0.0000       3.094540        84.2067 
 313   0.0000       3.127153        85.0942 
 314   0.0000       3.158124        85.9369 
 315   0.0000       3.174211        86.3747 
 316   0.0000       3.190794        86.8259 
 317   0.0000       3.198864        87.0455 
 318   0.0000       3.241255        88.1990 
 319   0.0000       3.249661        88.4278 
 320   0.0000       3.385550        92.1255 
 321   0.0000       3.434423        93.4554 

                    ********************************
                    * MULLIKEN POPULATION ANALYSIS *
                    ********************************

-----------------------
MULLIKEN ATOMIC CHARGES
-----------------------
   0 S :    0.081781
   1 C :   -0.146219
   2 C :   -0.058281
   3 C :   -0.022610
   4 C :   -0.098662
   5 H :    0.010935
   6 C :    0.088154
   7 H :    0.050671
   8 H :   -0.008335
   9 C :   -0.100860
  10 H :    0.047310
  11 H :    0.030514
  12 C :   -0.010382
  13 H :    0.033447
  14 H :    0.023786
  15 H :    0.012743
  16 S :    0.092784
  17 C :   -0.044148
  18 C :   -0.049591
  19 C :   -0.041737
  20 C :   -0.133490
  21 H :    0.019554
  22 C :    0.020298
  23 H :    0.037685
  24 H :    0.034436
  25 C :   -0.126239
  26 H :    0.035194
  27 H :    0.036218
  28 C :   -0.006449
  29 H :    0.023990
  30 H :    0.034479
  31 H :    0.043430
  32 H :    0.058922
  33 H :    0.030673
Sum of atomic charges:   -0.0000000

--------------------------------
MULLIKEN REDUCED ORBITAL CHARGES
--------------------------------
  0 S s       :     5.845383  s :     5.845383
      pz      :     3.080329  p :     9.963139
      px      :     3.608579
      py      :     3.274231
      dz2     :     0.036002  d :     0.109698
      dxz     :     0.017150
      dyz     :     0.020998
      dx2y2   :     0.017341
      dxy     :     0.018206
  1 C s       :     3.198311  s :     3.198311
      pz      :     0.815254  p :     2.912860
      px      :     1.103426
      py      :     0.994181
      dz2     :     0.009362  d :     0.035047
      dxz     :     0.004474
      dyz     :     0.009879
      dx2y2   :     0.005226
      dxy     :     0.006106
  2 C s       :     3.062257  s :     3.062257
      pz      :     1.008101  p :     2.951632
      px      :     0.991899
      py      :     0.951632
      dz2     :     0.010703  d :     0.044392
      dxz     :     0.007639
      dyz     :     0.011853
      dx2y2   :     0.007180
      dxy     :     0.007018
  3 C s       :     3.206485  s :     3.206485
      pz      :     0.903239  p :     2.780586
      px      :     0.974787
      py      :     0.902559
      dz2     :     0.008787  d :     0.035540
      dxz     :     0.007908
      dyz     :     0.010873
      dx2y2   :     0.003615
      dxy     :     0.004357
  4 C s       :     3.035646  s :     3.035646
      pz      :     1.005007  p :     3.015084
      px      :     1.051780
      py      :     0.958297
      dz2     :     0.013467  d :     0.047933
      dxz     :     0.009755
      dyz     :     0.009065
      dx2y2   :     0.007995
      dxy     :     0.007651
  5 H s       :     0.963676  s :     0.963676
      pz      :     0.004107  p :     0.025389
      px      :     0.008151
      py      :     0.013131
  6 C s       :     2.958107  s :     2.958107
      pz      :     0.950200  p :     2.918744
      px      :     1.014332
      py      :     0.954212
      dz2     :     0.005670  d :     0.034995
      dxz     :     0.005612
      dyz     :     0.010323
      dx2y2   :     0.007723
      dxy     :     0.005667
  7 H s       :     0.927409  s :     0.927409
      pz      :     0.005070  p :     0.021920
      px      :     0.012887
      py      :     0.003962
  8 H s       :     0.983713  s :     0.983713
      pz      :     0.008559  p :     0.024622
      px      :     0.007786
      py      :     0.008277
  9 C s       :     3.086851  s :     3.086851
      pz      :     1.001157  p :     2.979743
      px      :     0.991651
      py      :     0.986935
      dz2     :     0.006426  d :     0.034266
      dxz     :     0.006438
      dyz     :     0.005744
      dx2y2   :     0.007805
      dxy     :     0.007852
 10 H s       :     0.932225  s :     0.932225
      pz      :     0.012012  p :     0.020465
      px      :     0.003701
      py      :     0.004753
 11 H s       :     0.945240  s :     0.945240
      pz      :     0.009578  p :     0.024245
      px      :     0.007134
      py      :     0.007533
 12 C s       :     2.977376  s :     2.977376
      pz      :     1.029560  p :     3.005193
      px      :     0.957737
      py      :     1.017896
      dz2     :     0.006813  d :     0.027813
      dxz     :     0.005560
      dyz     :     0.003433
      dx2y2   :     0.005980
      dxy     :     0.006026
 13 H s       :     0.941248  s :     0.941248
      pz      :     0.014309  p :     0.025305
      px      :     0.004640
      py      :     0.006355
 14 H s       :     0.952783  s :     0.952783
      pz      :     0.008194  p :     0.023431
      px      :     0.006224
      py      :     0.009013
 15 H s       :     0.959448  s :     0.959448
      pz      :     0.007050  p :     0.027809
      px      :     0.006124
      py      :     0.014635
 16 S s       :     5.846385  s :     5.846385
      pz      :     3.162135  p :     9.962592
      px      :     3.568738
      py      :     3.231719
      dz2     :     0.027829  d :     0.098239
      dxz     :     0.018741
      dyz     :     0.020340
      dx2y2   :     0.020118
      dxy     :     0.011211
 17 C s       :     3.117401  s :     3.117401
      pz      :     0.883482  p :     2.892223
      px      :     1.030496
      py      :     0.978245
      dz2     :     0.007091  d :     0.034523
      dxz     :     0.005536
      dyz     :     0.009935
      dx2y2   :     0.004752
      dxy     :     0.007208
 18 C s       :     3.194245  s :     3.194245
      pz      :     0.908078  p :     2.820805
      px      :     1.018315
      py      :     0.894412
      dz2     :     0.007478  d :     0.034541
      dxz     :     0.004407
      dyz     :     0.011083
      dx2y2   :     0.005203
      dxy     :     0.006370
 19 C s       :     3.048644  s :     3.048644
      pz      :     0.979080  p :     2.951786
      px      :     0.994569
      py      :     0.978137
      dz2     :     0.008924  d :     0.041307
      dxz     :     0.006463
      dyz     :     0.013015
      dx2y2   :     0.006074
      dxy     :     0.006831
 20 C s       :     3.070198  s :     3.070198
      pz      :     1.050825  p :     3.022953
      px      :     1.098607
      py      :     0.873521
      dz2     :     0.010457  d :     0.040339
      dxz     :     0.007753
      dyz     :     0.009529
      dx2y2   :     0.007134
      dxy     :     0.005466
 21 H s       :     0.955910  s :     0.955910
      pz      :     0.012719  p :     0.024536
      px      :     0.005999
      py      :     0.005818
 22 C s       :     2.982755  s :     2.982755
      pz      :     1.006231  p :     2.963025
      px      :     1.044999
      py      :     0.911796
      dz2     :     0.008304  d :     0.033922
      dxz     :     0.004946
      dyz     :     0.005858
      dx2y2   :     0.008358
      dxy     :     0.006456
 23 H s       :     0.938880  s :     0.938880
      pz      :     0.005482  p :     0.023435
      px      :     0.013030
      py      :     0.004923
 24 H s       :     0.942455  s :     0.942455
      pz      :     0.012113  p :     0.023109
      px      :     0.006550
      py      :     0.004446
 25 C s       :     3.080232  s :     3.080232
      pz      :     1.019339  p :     3.010204
      px      :     1.007209
      py      :     0.983656
      dz2     :     0.006666  d :     0.035803
      dxz     :     0.008009
      dyz     :     0.006285
      dx2y2   :     0.005958
      dxy     :     0.008885
 26 H s       :     0.941932  s :     0.941932
      pz      :     0.004870  p :     0.022874
      px      :     0.010822
      py      :     0.007182
 27 H s       :     0.940969  s :     0.940969
      pz      :     0.010515  p :     0.022813
      px      :     0.008486
      py      :     0.003812
 28 C s       :     2.989663  s :     2.989663
      pz      :     1.031122  p :     2.988950
      px      :     0.993805
      py      :     0.964022
      dz2     :     0.003945  d :     0.027836
      dxz     :     0.007943
      dyz     :     0.003974
      dx2y2   :     0.005281
      dxy     :     0.006694
 29 H s       :     0.949860  s :     0.949860
      pz      :     0.010949  p :     0.026150
      px      :     0.010483
      py      :     0.004718
 30 H s       :     0.941836  s :     0.941836
      pz      :     0.011783  p :     0.023686
      px      :     0.006588
      py      :     0.005315
 31 H s       :     0.934594  s :     0.934594
      pz      :     0.004795  p :     0.021976
      px      :     0.010593
      py      :     0.006588
 32 H s       :     0.918473  s :     0.918473
      pz      :     0.008729  p :     0.022605
      px      :     0.005547
      py      :     0.008329
 33 H s       :     0.943209  s :     0.943209
      pz      :     0.009591  p :     0.026119
      px      :     0.008342
      py      :     0.008186


                     *******************************
                     * LOEWDIN POPULATION ANALYSIS *
                     *******************************

----------------------
LOEWDIN ATOMIC CHARGES
----------------------
   0 S :    0.422978
   1 C :   -0.192744
   2 C :   -0.061758
   3 C :   -0.074625
   4 C :   -0.202399
   5 H :    0.021728
   6 C :   -0.030455
   7 H :    0.040828
   8 H :    0.016878
   9 C :   -0.038005
  10 H :    0.034216
  11 H :    0.018671
  12 C :   -0.053810
  13 H :    0.023981
  14 H :    0.028572
  15 H :    0.011171
  16 S :    0.387721
  17 C :   -0.171856
  18 C :   -0.068308
  19 C :   -0.054104
  20 C :   -0.165967
  21 H :    0.031064
  22 C :   -0.047127
  23 H :    0.023460
  24 H :    0.026306
  25 C :   -0.047435
  26 H :    0.025198
  27 H :    0.020110
  28 C :   -0.058771
  29 H :    0.019013
  30 H :    0.031256
  31 H :    0.033084
  32 H :    0.035585
  33 H :    0.015542

-------------------------------
LOEWDIN REDUCED ORBITAL CHARGES
-------------------------------
  0 S s       :     5.491256  s :     5.491256
      pz      :     3.074073  p :     9.950487
      px      :     3.566373
      py      :     3.310041
      dz2     :     0.047178  d :     0.135279
      dxz     :     0.020239
      dyz     :     0.024949
      dx2y2   :     0.020580
      dxy     :     0.022334
  1 C s       :     2.931010  s :     2.931010
      pz      :     0.989961  p :     3.178501
      px      :     1.103625
      py      :     1.084915
      dz2     :     0.022455  d :     0.083233
      dxz     :     0.009217
      dyz     :     0.026490
      dx2y2   :     0.012312
      dxy     :     0.012758
  2 C s       :     2.862383  s :     2.862383
      pz      :     1.032700  p :     3.089812
      px      :     0.991112
      py      :     1.066001
      dz2     :     0.027103  d :     0.109563
      dxz     :     0.016341
      dyz     :     0.032820
      dx2y2   :     0.017927
      dxy     :     0.015371
  3 C s       :     2.858703  s :     2.858703
      pz      :     1.043517  p :     3.122304
      px      :     1.029638
      py      :     1.049148
      dz2     :     0.025955  d :     0.093619
      dxz     :     0.018557
      dyz     :     0.031147
      dx2y2   :     0.007509
      dxy     :     0.010450
  4 C s       :     2.896109  s :     2.896109
      pz      :     1.081582  p :     3.191094
      px      :     1.055355
      py      :     1.054157
      dz2     :     0.033868  d :     0.115196
      dxz     :     0.022235
      dyz     :     0.024472
      dx2y2   :     0.017729
      dxy     :     0.016891
  5 H s       :     0.903693  s :     0.903693
      pz      :     0.014025  p :     0.074579
      px      :     0.023354
      py      :     0.037200
  6 C s       :     2.832801  s :     2.832801
      pz      :     1.016087  p :     3.111501
      px      :     1.067567
      py      :     1.027847
      dz2     :     0.015512  d :     0.086152
      dxz     :     0.013284
      dyz     :     0.024128
      dx2y2   :     0.019154
      dxy     :     0.014074
  7 H s       :     0.895481  s :     0.895481
      pz      :     0.015671  p :     0.063691
      px      :     0.035889
      py      :     0.012130
  8 H s       :     0.909506  s :     0.909506
      pz      :     0.025612  p :     0.073616
      px      :     0.021506
      py      :     0.026498
  9 C s       :     2.846266  s :     2.846266
      pz      :     1.052902  p :     3.109467
      px      :     1.023408
      py      :     1.033157
      dz2     :     0.017539  d :     0.082273
      dxz     :     0.014224
      dyz     :     0.013854
      dx2y2   :     0.019428
      dxy     :     0.017229
 10 H s       :     0.905686  s :     0.905686
      pz      :     0.033648  p :     0.060098
      px      :     0.011506
      py      :     0.014944
 11 H s       :     0.907619  s :     0.907619
      pz      :     0.028108  p :     0.073710
      px      :     0.023228
      py      :     0.022374
 12 C s       :     2.817698  s :     2.817698
      pz      :     1.074266  p :     3.165278
      px      :     1.008720
      py      :     1.082292
      dz2     :     0.017957  d :     0.070834
      dxz     :     0.012068
      dyz     :     0.009574
      dx2y2   :     0.016758
      dxy     :     0.014477
 13 H s       :     0.904810  s :     0.904810
      pz      :     0.038914  p :     0.071209
      px      :     0.016113
      py      :     0.016182
 14 H s       :     0.908758  s :     0.908758
      pz      :     0.021222  p :     0.062670
      px      :     0.019004
      py      :     0.022444
 15 H s       :     0.907461  s :     0.907461
      pz      :     0.019703  p :     0.081368
      px      :     0.021281
      py      :     0.040384
 16 S s       :     5.536456  s :     5.536456
      pz      :     3.162868  p :     9.956661
      px      :     3.540285
      py      :     3.253507
      dz2     :     0.035071  d :     0.119162
      dxz     :     0.023271
      dyz     :     0.024998
      dx2y2   :     0.023603
      dxy     :     0.012220
 17 C s       :     2.922346  s :     2.922346
      pz      :     1.019616  p :     3.168275
      px      :     1.064289
      py      :     1.084371
      dz2     :     0.016832  d :     0.081234
      dxz     :     0.011816
      dyz     :     0.024460
      dx2y2   :     0.012866
      dxy     :     0.015260
 18 C s       :     2.862839  s :     2.862839
      pz      :     1.045531  p :     3.114687
      px      :     1.017067
      py      :     1.052089
      dz2     :     0.020715  d :     0.090782
      dxz     :     0.009312
      dyz     :     0.031539
      dx2y2   :     0.015006
      dxy     :     0.014210
 19 C s       :     2.865019  s :     2.865019
      pz      :     1.051272  p :     3.086193
      px      :     0.999084
      py      :     1.035837
      dz2     :     0.023684  d :     0.102892
      dxz     :     0.014806
      dyz     :     0.036539
      dx2y2   :     0.014671
      dxy     :     0.013191
 20 C s       :     2.925838  s :     2.925838
      pz      :     1.060893  p :     3.145357
      px      :     1.107218
      py      :     0.977246
      dz2     :     0.025431  d :     0.094772
      dxz     :     0.016781
      dyz     :     0.025085
      dx2y2   :     0.015907
      dxy     :     0.011567
 21 H s       :     0.895815  s :     0.895815
      pz      :     0.036065  p :     0.073121
      px      :     0.018506
      py      :     0.018550
 22 C s       :     2.840926  s :     2.840926
      pz      :     1.054280  p :     3.123498
      px      :     1.080570
      py      :     0.988648
      dz2     :     0.020482  d :     0.082702
      dxz     :     0.011811
      dyz     :     0.014287
      dx2y2   :     0.020980
      dxy     :     0.015142
 23 H s       :     0.905721  s :     0.905721
      pz      :     0.015928  p :     0.070820
      px      :     0.037736
      py      :     0.017155
 24 H s       :     0.905747  s :     0.905747
      pz      :     0.035296  p :     0.067946
      px      :     0.018074
      py      :     0.014576
 25 C s       :     2.838984  s :     2.838984
      pz      :     1.047360  p :     3.122142
      px      :     1.052908
      py      :     1.021874
      dz2     :     0.015932  d :     0.086309
      dxz     :     0.019998
      dyz     :     0.014407
      dx2y2   :     0.014545
      dxy     :     0.021428
 26 H s       :     0.908352  s :     0.908352
      pz      :     0.014222  p :     0.066450
      px      :     0.030375
      py      :     0.021854
 27 H s       :     0.910126  s :     0.910126
      pz      :     0.031392  p :     0.069764
      px      :     0.024696
      py      :     0.013676
 28 C s       :     2.829913  s :     2.829913
      pz      :     1.083835  p :     3.157358
      px      :     1.050345
      py      :     1.023178
      dz2     :     0.010666  d :     0.071500
      dxz     :     0.020143
      dyz     :     0.009561
      dx2y2   :     0.014105
      dxy     :     0.017025
 29 H s       :     0.906139  s :     0.906139
      pz      :     0.029341  p :     0.074849
      px      :     0.029825
      py      :     0.015682
 30 H s       :     0.903139  s :     0.903139
      pz      :     0.031584  p :     0.065605
      px      :     0.017744
      py      :     0.016277
 31 H s       :     0.906639  s :     0.906639
      pz      :     0.012178  p :     0.060278
      px      :     0.028862
      py      :     0.019238
 32 H s       :     0.894646  s :     0.894646
      pz      :     0.028632  p :     0.069769
      px      :     0.017671
      py      :     0.023466
 33 H s       :     0.900888  s :     0.900888
      pz      :     0.032474  p :     0.083570
      px      :     0.026653
      py      :     0.024443


                      *****************************
                      * MAYER POPULATION ANALYSIS *
                      *****************************

  NA   - Mulliken gross atomic population
  ZA   - Total nuclear charge
  QA   - Mulliken gross atomic charge
  VA   - Mayer's total valence
  BVA  - Mayer's bonded valence
  FA   - Mayer's free valence

  ATOM       NA         ZA         QA         VA         BVA        FA
  0 S     15.9182    16.0000     0.0818     2.4812     2.4812    -0.0000
  1 C      6.1462     6.0000    -0.1462     3.8613     3.8613    -0.0000
  2 C      6.0583     6.0000    -0.0583     3.9881     3.9881    -0.0000
  3 C      6.0226     6.0000    -0.0226     3.9421     3.9421    -0.0000
  4 C      6.0987     6.0000    -0.0987     3.9111     3.9111    -0.0000
  5 H      0.9891     1.0000     0.0109     1.0111     1.0111    -0.0000
  6 C      5.9118     6.0000     0.0882     3.9264     3.9264    -0.0000
  7 H      0.9493     1.0000     0.0507     0.9826     0.9826    -0.0000
  8 H      1.0083     1.0000    -0.0083     0.9944     0.9944     0.0000
  9 C      6.1009     6.0000    -0.1009     4.0847     4.0847     0.0000
 10 H      0.9527     1.0000     0.0473     0.9755     0.9755     0.0000
 11 H      0.9695     1.0000     0.0305     0.9827     0.9827    -0.0000
 12 C      6.0104     6.0000    -0.0104     3.9907     3.9907     0.0000
 13 H      0.9666     1.0000     0.0334     0.9958     0.9958     0.0000
 14 H      0.9762     1.0000     0.0238     0.9908     0.9908     0.0000
 15 H      0.9873     1.0000     0.0127     0.9940     0.9940     0.0000
 16 S     15.9072    16.0000     0.0928     2.4747     2.4747    -0.0000
 17 C      6.0441     6.0000    -0.0441     3.8382     3.8382    -0.0000
 18 C      6.0496     6.0000    -0.0496     3.9910     3.9910     0.0000
 19 C      6.0417     6.0000    -0.0417     4.0147     4.0147     0.0000
 20 C      6.1335     6.0000    -0.1335     3.9228     3.9228     0.0000
 21 H      0.9804     1.0000     0.0196     1.0024     1.0024    -0.0000
 22 C      5.9797     6.0000     0.0203     3.9179     3.9179    -0.0000
 23 H      0.9623     1.0000     0.0377     0.9835     0.9835    -0.0000
 24 H      0.9656     1.0000     0.0344     1.0007     1.0007    -0.0000
 25 C      6.1262     6.0000    -0.1262     4.1209     4.1209    -0.0000
 26 H      0.9648     1.0000     0.0352     0.9734     0.9734    -0.0000
 27 H      0.9638     1.0000     0.0362     0.9715     0.9715    -0.0000
 28 C      6.0064     6.0000    -0.0064     3.9965     3.9965    -0.0000
 29 H      0.9760     1.0000     0.0240     0.9927     0.9927    -0.0000
 30 H      0.9655     1.0000     0.0345     0.9880     0.9880    -0.0000
 31 H      0.9566     1.0000     0.0434     0.9873     0.9873    -0.0000
 32 H      0.9411     1.0000     0.0589     1.0019     1.0019    -0.0000
 33 H      0.9693     1.0000     0.0307     1.0040     1.0040    -0.0000

  Mayer bond orders larger than 0.100000
B(  0-S ,  1-C ) :   1.1311 B(  0-S ,  4-C ) :   1.1360 B(  1-C ,  2-C ) :   1.6515 
B(  1-C , 32-H ) :   0.9587 B(  2-C ,  3-C ) :   1.1971 B(  2-C ,  6-C ) :   1.0129 
B(  3-C ,  4-C ) :   1.5983 B(  3-C ,  5-H ) :   0.9865 B(  4-C , 20-C ) :   1.0607 
B(  6-C ,  7-H ) :   0.9441 B(  6-C ,  8-H ) :   0.9335 B(  6-C ,  9-C ) :   1.0549 
B(  9-C , 10-H ) :   0.9581 B(  9-C , 11-H ) :   0.9611 B(  9-C , 12-C ) :   1.0736 
B( 12-C , 13-H ) :   0.9750 B( 12-C , 14-H ) :   0.9761 B( 12-C , 15-H ) :   0.9767 
B( 16-S , 17-C ) :   1.1629 B( 16-S , 20-C ) :   1.1247 B( 17-C , 18-C ) :   1.5796 
B( 17-C , 20-C ) :   0.1111 B( 17-C , 33-H ) :   0.9680 B( 18-C , 19-C ) :   1.2868 
B( 18-C , 21-H ) :   0.9822 B( 19-C , 20-C ) :   1.5696 B( 19-C , 22-C ) :   1.0097 
B( 22-C , 23-H ) :   0.9337 B( 22-C , 24-H ) :   0.9405 B( 22-C , 25-C ) :   1.0598 
B( 25-C , 26-H ) :   0.9568 B( 25-C , 27-H ) :   0.9531 B( 25-C , 28-C ) :   1.0882 
B( 28-C , 29-H ) :   0.9728 B( 28-C , 30-H ) :   0.9705 B( 28-C , 31-H ) :   0.9737 


-------
TIMINGS
-------

Total SCF time: 0 days 0 hours 0 min 19 sec 

Total time                  ....      19.333 sec
Sum of individual times     ....      18.468 sec  ( 95.5%)

Fock matrix formation       ....      16.803 sec  ( 86.9%)
  XC integration            ....       1.499 sec  (  8.9% of F)
    Basis function eval.    ....       0.127 sec  (  8.5% of XC)
    Density eval.           ....       0.090 sec  (  6.0% of XC)
    XC-Functional eval.     ....       0.117 sec  (  7.8% of XC)
    XC-Potential eval.      ....       0.102 sec  (  6.8% of XC)
Diagonalization             ....       0.138 sec  (  0.7%)
Density matrix formation    ....       0.023 sec  (  0.1%)
Population analysis         ....       0.055 sec  (  0.3%)
Initial guess               ....       0.167 sec  (  0.9%)
Orbital Transformation      ....       0.000 sec  (  0.0%)
Orbital Orthonormalization  ....       0.000 sec  (  0.0%)
DIIS solution               ....       0.152 sec  (  0.8%)
SOSCF solution              ....       0.128 sec  (  0.7%)
Grid generation             ....       1.001 sec  (  5.2%)


-------------------------------------------------------------------------------
                          DFT DISPERSION CORRECTION                            
                                                                               
                              DFTD3 V3.1  Rev 1                                
                              USING zero damping                               
-------------------------------------------------------------------------------
The omegaB97X-D3 functional is recognized. Fit by Chai et al.
Active option DFTDOPT                   ...         3   

molecular C6(AA) [au] = 14187.836676 


            DFT-D V3
 parameters
 s6 scaling factor         :     1.0000 
 rs6 scaling factor        :     1.2810 
 s8 scaling factor         :     1.0000 
 rs8 scaling factor        :     1.0940 
 Damping factor alpha6     :    14.0000 
 Damping factor alpha8     :    16.0000 
 ad hoc parameters k1-k3   :    16.0000     1.3333    -4.0000 

 Edisp/kcal,au: -8.503437487914  -0.013551088760 
 E6   /kcal   :  -3.776218040 
 E8   /kcal   :  -4.727219448 
 % E8         :  55.591864527 

-------------------------   ----------------
Dispersion correction           -0.013551089
-------------------------   ----------------


-------------------------   --------------------
FINAL SINGLE POINT ENERGY     -1339.858720788881
-------------------------   --------------------


                            ***************************************
                            *     ORCA property calculations      *
                            ***************************************

                                    ---------------------
                                    Active property flags
                                    ---------------------
   (+) Dipole Moment


------------------------------------------------------------------------------
                       ORCA ELECTRIC PROPERTIES CALCULATION
------------------------------------------------------------------------------

Dipole Moment Calculation                       ... on
Quadrupole Moment Calculation                   ... off
Polarizability Calculation                      ... off
GBWName                                         ... config_2667.gbw
Electron density file                           ... config_2667.scfp
The origin for moment calculation is the CENTER OF MASS  = (-256.516886, 17.676290 -25.631930)

-------------
DIPOLE MOMENT
-------------
                                X             Y             Z
Electronic contribution:     -0.32432       6.43051      -5.93106
Nuclear contribution   :      0.55788      -6.62164       6.02001
                        -----------------------------------------
Total Dipole Moment    :      0.23356      -0.19113       0.08895
                        -----------------------------------------
Magnitude (a.u.)       :      0.31463
Magnitude (Debye)      :      0.79972



--------------------
Rotational spectrum 
--------------------
 
Rotational constants in cm-1:     0.022915     0.007674     0.006039 
Rotational constants in MHz :   686.976306   230.074829   181.034573 

 Dipole components along the rotational axes: 
x,y,z [a.u.] :    -0.079999    -0.174123    -0.249544 
x,y,z [Debye]:    -0.203342    -0.442585    -0.634291 

 

Timings for individual modules:

Sum of individual times         ...       20.514 sec (=   0.342 min)
GTO integral calculation        ...        0.777 sec (=   0.013 min)   3.8 %
SCF iterations                  ...       19.737 sec (=   0.329 min)  96.2 %
                             ****ORCA TERMINATED NORMALLY****
TOTAL RUN TIME: 0 days 0 hours 0 minutes 21 seconds 197 msec
