
                                 *****************
                                 * O   R   C   A *
                                 *****************

           --- An Ab Initio, DFT and Semiempirical electronic structure package ---

                  #######################################################
                  #                        -***-                        #
                  #          Department of theory and spectroscopy      #
                  #               Directorship: Frank Neese             #
                  #        Max Planck Institute fuer Kohlenforschung    #
                  #                Kaiser Wilhelm Platz 1               #
                  #                 D-45470 Muelheim/Ruhr               #
                  #                      Germany                        #
                  #                                                     #
                  #                  All rights reserved                #
                  #                        -***-                        #
                  #######################################################


                         Program Version 4.2.1 -  RELEASE  -


 With contributions from (in alphabetic order):
   Daniel Aravena         : Magnetic Suceptibility
   Michael Atanasov       : Ab Initio Ligand Field Theory (pilot matlab implementation)
   Alexander A. Auer      : GIAO ZORA, VPT2
   Ute Becker             : Parallelization
   Giovanni Bistoni       : ED, misc. LED, open-shell LED, HFLD
   Martin Brehm           : Molecular dynamics
   Dmytro Bykov           : SCF Hessian
   Vijay G. Chilkuri      : MRCI spin determinant printing, contributions to CSF-ICE
   Dipayan Datta          : RHF DLPNO-CCSD density
   Achintya Kumar Dutta   : EOM-CC, STEOM-CC
   Dmitry Ganyushin       : Spin-Orbit,Spin-Spin,Magnetic field MRCI
   Miquel Garcia          : C-PCM Hessian, Gaussian charge scheme
   Yang Guo               : DLPNO-NEVPT2, CIM, IAO-localization
   Andreas Hansen         : Spin unrestricted coupled pair/coupled cluster methods
   Benjamin Helmich-Paris : CASSCF linear response (MC-RPA)
   Lee Huntington         : MR-EOM, pCC
   Robert Izsak           : Overlap fitted RIJCOSX, COSX-SCS-MP3, EOM
   Christian Kollmar      : KDIIS, OOCD, Brueckner-CCSD(T), CCSD density
   Simone Kossmann        : Meta GGA functionals, TD-DFT gradient, OOMP2, MP2 Hessian
   Martin Krupicka        : AUTO-CI
   Lucas Lang             : DCDCAS
   Dagmar Lenk            : GEPOL surface, SMD
   Dimitrios Liakos       : Extrapolation schemes; Compound Job, initial MDCI parallelization
   Dimitrios Manganas     : Further ROCIS development; embedding schemes
   Dimitrios Pantazis     : SARC Basis sets
   Taras Petrenko         : DFT Hessian,TD-DFT gradient, ASA, ECA, R-Raman, ABS, FL, XAS/XES, NRVS
   Peter Pinski           : DLPNO-MP2, DLPNO-MP2 Gradient
   Christoph Reimann      : Effective Core Potentials
   Marius Retegan         : Local ZFS, SOC
   Christoph Riplinger    : Optimizer, TS searches, QM/MM, DLPNO-CCSD(T), (RO)-DLPNO pert. Triples
   Tobias Risthaus        : Range-separated hybrids, TD-DFT gradient, RPA, STAB
   Michael Roemelt        : Original ROCIS implementation
   Masaaki Saitow         : Open-shell DLPNO-CCSD energy and density
   Barbara Sandhoefer     : DKH picture change effects
   Avijit Sen             : IP-ROCIS
   Kantharuban Sivalingam : CASSCF convergence, NEVPT2, FIC-MRCI
   Bernardo de Souza      : ESD, SOC TD-DFT
   Georgi Stoychev        : AutoAux, RI-MP2 NMR
   Willem Van den Heuvel  : Paramagnetic NMR
   Boris Wezisla          : Elementary symmetry handling
   Frank Wennmohs         : Technical directorship


 We gratefully acknowledge several colleagues who have allowed us to
 interface, adapt or use parts of their codes:
   Stefan Grimme, W. Hujo, H. Kruse,             : VdW corrections, initial TS optimization,
                  C. Bannwarth                     DFT functionals, gCP, sTDA/sTD-DF
   Ed Valeev, F. Pavosevic, A. Kumar             : LibInt (2-el integral package), F12 methods
   Garnet Chan, S. Sharma, J. Yang, R. Olivares  : DMRG
   Ulf Ekstrom                                   : XCFun DFT Library
   Mihaly Kallay                                 : mrcc  (arbitrary order and MRCC methods)
   Andreas Klamt, Michael Diedenhofen            : otool_cosmo (COSMO solvation model)
   Jiri Pittner, Ondrej Demel                    : Mk-CCSD
   Frank Weinhold                                : gennbo (NPA and NBO analysis)
   Christopher J. Cramer and Donald G. Truhlar   : smd solvation model
   Lars Goerigk                                  : TD-DFT with DH, B97 family of functionals
   V. Asgeirsson, H. Jonsson                     : NEB implementation
   FAccTs GmbH                                   : IRC, NEB, NEB-TS, Multilevel, MM, QM/MM, CI optimization
   S Lehtola, MJT Oliveira, MAL Marques          : LibXC Library


 Your calculation uses the libint2 library for the computation of 2-el integrals
 For citations please refer to: http://libint.valeyev.net

 Your ORCA version has been built with support for libXC version: 4.2.3
 For citations please refer to: https://tddft.org/programs/libxc/

 This ORCA versions uses:
   CBLAS   interface :  Fast vector & matrix operations
   LAPACKE interface :  Fast linear algebra routines
   SCALAPACK package :  Parallel linear algebra routines


Your calculation utilizes the atom-pairwise dispersion correction
with the zero-damping scheme (D30)
Cite in your paper:
S.Grimme, J.Antony, S.Ehrlich and H.Krieg, J.Chem.Phys., 132, (2010), 154104 
   

XCFun DFT library Copyright 2009-2010 Ulf Ekstrom and contributors.
See http://admol.org/xcfun for more information. This is free soft-
ware; see the source code for copying conditions. There is ABSOLUTELY
NO WARRANTY; not even for MERCHANTABILITY or FITNESS FOR A PARTICULAR
PURPOSE. For details see the documentation. Scientific users of this 
library should cite U. Ekstrom, L. Visscher, R. Bast, A. J. Thorvald-
sen and K. Ruud; J.Chem.Theor.Comp. 2010, DOI: 10.1021/ct100117s
XCFun Version 0.99 
----- Orbital basis set information -----
Your calculation utilizes the basis: def2-SVP
   F. Weigend and R. Ahlrichs, Phys. Chem. Chem. Phys. 7, 3297 (2005).

================================================================================
                                        WARNINGS
                       Please study these warnings very carefully!
================================================================================


INFO   : the flag for use of LIBINT has been found!

================================================================================
                                       INPUT FILE
================================================================================
NAME = config_3542.inp
|  1> ! wB97X-D3 SP def2-SVP
|  2> %pal
|  3> nprocs 24
|  4> end
|  5> 
|  6> * xyz 0 1
|  7> S 	 -117.881 	 48.5 	 -27.2343 	 
|  8> C 	 -117.25 	 48.828 	 -28.8138 	 
|  9> C 	 -118.132 	 49.2531 	 -29.7488 	 
| 10> C 	 -119.44 	 49.2287 	 -29.193 	 
| 11> C 	 -119.477 	 49.0054 	 -27.8375 	 
| 12> H 	 -120.357 	 49.4735 	 -29.6975 	 
| 13> C 	 -117.785 	 49.4919 	 -31.2061 	 
| 14> H 	 -116.692 	 49.339 	 -31.1373 	 
| 15> H 	 -117.959 	 50.5886 	 -31.336 	 
| 16> C 	 -118.388 	 48.6963 	 -32.3974 	 
| 17> H 	 -119.462 	 48.9822 	 -32.5661 	 
| 18> H 	 -117.783 	 48.9535 	 -33.2522 	 
| 19> C 	 -118.208 	 47.2087 	 -32.2329 	 
| 20> H 	 -118.552 	 46.6529 	 -33.1128 	 
| 21> H 	 -117.133 	 47.0979 	 -32.222 	 
| 22> H 	 -118.651 	 46.9435 	 -31.2781 	 
| 23> S 	 -121.63 	 50.4555 	 -27.0698 	 
| 24> C 	 -122.59 	 50.1218 	 -25.7208 	 
| 25> C 	 -122.17 	 48.933 	 -25.1276 	 
| 26> C 	 -120.995 	 48.3938 	 -25.7104 	 
| 27> C 	 -120.635 	 49.0256 	 -26.9261 	 
| 28> H 	 -122.635 	 48.665 	 -24.2609 	 
| 29> C 	 -120.426 	 47.1238 	 -25.1025 	 
| 30> H 	 -120.122 	 47.3827 	 -24.0279 	 
| 31> H 	 -119.492 	 46.789 	 -25.4818 	 
| 32> C 	 -121.315 	 45.8878 	 -24.9262 	 
| 33> H 	 -122.092 	 46.1459 	 -24.2172 	 
| 34> H 	 -120.687 	 45.1279 	 -24.4435 	 
| 35> C 	 -121.97 	 45.3276 	 -26.1884 	 
| 36> H 	 -121.328 	 44.8859 	 -26.9189 	 
| 37> H 	 -122.411 	 46.1784 	 -26.6667 	 
| 38> H 	 -122.692 	 44.4949 	 -25.9478 	 
| 39> H 	 -116.129 	 48.8132 	 -28.9698 	 
| 40> H 	 -123.54 	 50.6582 	 -25.4765 	 
| 41> *
| 42> 
| 43>                          ****END OF INPUT****
================================================================================

                       ****************************
                       * Single Point Calculation *
                       ****************************

---------------------------------
CARTESIAN COORDINATES (ANGSTROEM)
---------------------------------
  S    -117.881000   48.500000  -27.234300
  C    -117.250000   48.828000  -28.813800
  C    -118.132000   49.253100  -29.748800
  C    -119.440000   49.228700  -29.193000
  C    -119.477000   49.005400  -27.837500
  H    -120.357000   49.473500  -29.697500
  C    -117.785000   49.491900  -31.206100
  H    -116.692000   49.339000  -31.137300
  H    -117.959000   50.588600  -31.336000
  C    -118.388000   48.696300  -32.397400
  H    -119.462000   48.982200  -32.566100
  H    -117.783000   48.953500  -33.252200
  C    -118.208000   47.208700  -32.232900
  H    -118.552000   46.652900  -33.112800
  H    -117.133000   47.097900  -32.222000
  H    -118.651000   46.943500  -31.278100
  S    -121.630000   50.455500  -27.069800
  C    -122.590000   50.121800  -25.720800
  C    -122.170000   48.933000  -25.127600
  C    -120.995000   48.393800  -25.710400
  C    -120.635000   49.025600  -26.926100
  H    -122.635000   48.665000  -24.260900
  C    -120.426000   47.123800  -25.102500
  H    -120.122000   47.382700  -24.027900
  H    -119.492000   46.789000  -25.481800
  C    -121.315000   45.887800  -24.926200
  H    -122.092000   46.145900  -24.217200
  H    -120.687000   45.127900  -24.443500
  C    -121.970000   45.327600  -26.188400
  H    -121.328000   44.885900  -26.918900
  H    -122.411000   46.178400  -26.666700
  H    -122.692000   44.494900  -25.947800
  H    -116.129000   48.813200  -28.969800
  H    -123.540000   50.658200  -25.476500

----------------------------
CARTESIAN COORDINATES (A.U.)
----------------------------
  NO LB      ZA    FRAG     MASS         X           Y           Z
   0 S    16.0000    0    32.060  -222.762806   91.651717  -51.465368
   1 C     6.0000    0    12.011  -221.570389   92.271548  -54.450191
   2 C     6.0000    0    12.011  -223.237128   93.074870  -56.217085
   3 C     6.0000    0    12.011  -225.708889   93.028761  -55.166775
   4 C     6.0000    0    12.011  -225.778809   92.606785  -52.605251
   5 H     1.0000    0     1.008  -227.441768   93.491366  -56.120142
   6 C     6.0000    0    12.011  -222.581393   93.526137  -58.970983
   7 H     1.0000    0     1.008  -220.515922   93.237198  -58.840970
   8 H     1.0000    0     1.008  -222.910205   95.598599  -59.216458
   9 C     6.0000    0    12.011  -223.720898   92.022671  -61.222213
  10 H     1.0000    0     1.008  -225.750463   92.562943  -61.541010
  11 H     1.0000    0     1.008  -222.577613   92.508708  -62.837551
  12 C     6.0000    0    12.011  -223.380747   89.211514  -60.911354
  13 H     1.0000    0     1.008  -224.030813   88.161204  -62.574124
  14 H     1.0000    0     1.008  -221.349291   89.002132  -60.890755
  15 H     1.0000    0     1.008  -224.217896   88.710359  -59.107043
  16 S    16.0000    0    32.060  -229.847390   95.347077  -51.154509
  17 C     6.0000    0    12.011  -231.661527   94.716475  -48.605268
  18 C     6.0000    0    12.011  -230.867842   92.469969  -47.484282
  19 C     6.0000    0    12.011  -228.647414   91.451029  -48.585615
  20 C     6.0000    0    12.011  -227.967112   92.644958  -50.882955
  21 H     1.0000    0     1.008  -231.746564   91.963522  -45.846457
  22 C     6.0000    0    12.011  -227.572159   89.051076  -47.436850
  23 H     1.0000    0     1.008  -226.997683   89.540326  -45.406151
  24 H     1.0000    0     1.008  -225.807155   88.418396  -48.153623
  25 C     6.0000    0    12.011  -229.252126   86.715375  -47.103692
  26 H     1.0000    0     1.008  -230.720443   87.203113  -45.763876
  27 H     1.0000    0     1.008  -228.065378   85.279372  -46.191521
  28 C     6.0000    0    12.011  -230.489897   85.656750  -49.488904
  29 H     1.0000    0     1.008  -229.276692   84.822058  -50.869349
  30 H     1.0000    0     1.008  -231.323266   87.264529  -50.392760
  31 H     1.0000    0     1.008  -231.854279   84.083175  -49.034236
  32 H     1.0000    0     1.008  -219.452006   92.243580  -54.744988
  33 H     1.0000    0     1.008  -233.456767   95.730124  -48.143608

--------------------------------
INTERNAL COORDINATES (ANGSTROEM)
--------------------------------
 S      0   0   0     0.000000000000     0.00000000     0.00000000
 C      1   0   0     1.732213973503     0.00000000     0.00000000
 C      2   1   0     1.353831233943   116.86458719     0.00000000
 C      3   2   1     1.421398255240   108.90898424   355.60404040
 C      4   3   2     1.374267855987   114.40904089     9.91850612
 H      4   3   2     1.074865707891   126.70012930   182.47404578
 C      3   2   1     1.516956733068   124.32431963   184.64745465
 H      7   3   2     1.105785173531    98.31204949   353.45366207
 H      7   3   2     1.117989669004   103.32312933   243.40928103
 C      7   3   2     1.554279270273   124.54108757   116.32259887
 H     10   7   3     1.124132776855   110.82398205    72.15716745
 H     10   7   3     1.078359810082   105.53438076   192.25558958
 C     10   7   3     1.507452821816   112.03485713   305.70211806
 H     13  10   7     1.096117534756   112.04357695   185.11159422
 H     13  10   7     1.080749947953   102.77031494   297.97582058
 H     13  10   7     1.085459847254   106.75974442    55.79258549
 S      5   4   3     2.706947044181   102.36279419   146.89734914
 C     17   5   4     1.689010565390   124.94160864   152.86041712
 C     18  17   5     1.393388560309   109.71016803   355.38647918
 C     19  18  17     1.418103480004   113.52745219     5.82541287
 C     20  19  18     1.416579588304   113.18357500   348.67606551
 H     19  18  17     1.019420369622   116.66344553   175.66804631
 C     20  19  18     1.518618915331   117.64022542   177.84566481
 H     23  20  19     1.146390147376   106.60202478   296.88809375
 H     23  20  19     1.062221977743   116.75028079   186.27037182
 C     23  20  19     1.532676968575   120.20702303    53.56851260
 H     26  23  20     1.083063068339   107.41210413   295.62318782
 H     26  23  20     1.097648076571   106.08252150   181.79124647
 C     26  23  20     1.528397160427   116.68984332    57.87346551
 H     29  26  23     1.068125994441   117.30839438    67.80606578
 H     29  26  23     1.071033393504   104.72006151   311.03161738
 H     29  26  23     1.128078742819   111.63576016   186.33387457
 H      2   1   3     1.131899306476   118.94443031   171.88315059
 H     18  17   5     1.117992598365   124.24334647   187.02360476

---------------------------
INTERNAL COORDINATES (A.U.)
---------------------------
 S      0   0   0     0.000000000000     0.00000000     0.00000000
 C      1   0   0     3.273410015273     0.00000000     0.00000000
 C      2   1   0     2.558370263701   116.86458719     0.00000000
 C      3   2   1     2.686053429638   108.90898424   355.60404040
 C      4   3   2     2.596989882467   114.40904089     9.91850612
 H      4   3   2     2.031201818657   126.70012930   182.47404578
 C      3   2   1     2.866632782506   124.32431963   184.64745465
 H      7   3   2     2.089631140923    98.31204949   353.45366207
 H      7   3   2     2.112694294971   103.32312933   243.40928103
 C      7   3   2     2.937162156447   124.54108757   116.32259887
 H     10   7   3     2.124303086421   110.82398205    72.15716745
 H     10   7   3     2.037804714882   105.53438076   192.25558958
 C     10   7   3     2.848672993038   112.03485713   305.70211806
 H     13  10   7     2.071361951278   112.04357695   185.11159422
 H     13  10   7     2.042321420880   102.77031494   297.97582058
 H     13  10   7     2.051221840677   106.75974442    55.79258549
 S      5   4   3     5.115388572530   102.36279419   146.89734914
 C     17   5   4     3.191767405887   124.94160864   152.86041712
 C     18  17   5     2.633122777123   109.71016803   355.38647918
 C     19  18  17     2.679827206769   113.52745219     5.82541287
 C     20  19  18     2.676947468798   113.18357500   348.67606551
 H     19  18  17     1.926425313926   116.66344553   175.66804631
 C     20  19  18     2.869773851767   117.64022542   177.84566481
 H     23  20  19     2.166363421166   106.60202478   296.88809375
 H     23  20  19     2.007308631366   116.75028079   186.27037182
 C     23  20  19     2.896339722375   120.20702303    53.56851260
 H     26  23  20     2.046692584925   107.41210413   295.62318782
 H     26  23  20     2.074254256145   106.08252150   181.79124647
 C     26  23  20     2.888252057069   116.68984332    57.87346551
 H     29  26  23     2.018465606015   117.30839438    67.80606578
 H     29  26  23     2.023959794006   104.72006151   311.03161738
 H     29  26  23     2.131759881426   111.63576016   186.33387457
 H      2   1   3     2.138979700414   118.94443031   171.88315059
 H     18  17   5     2.112699830662   124.24334647   187.02360476

---------------------
BASIS SET INFORMATION
---------------------
There are 3 groups of distinct atoms

 Group   1 Type S   : 10s7p1d contracted to 4s3p1d pattern {5311/511/1}
 Group   2 Type C   : 7s4p1d contracted to 3s2p1d pattern {511/31/1}
 Group   3 Type H   : 4s1p contracted to 2s1p pattern {31/1}

Atom   0S    basis set group =>   1
Atom   1C    basis set group =>   2
Atom   2C    basis set group =>   2
Atom   3C    basis set group =>   2
Atom   4C    basis set group =>   2
Atom   5H    basis set group =>   3
Atom   6C    basis set group =>   2
Atom   7H    basis set group =>   3
Atom   8H    basis set group =>   3
Atom   9C    basis set group =>   2
Atom  10H    basis set group =>   3
Atom  11H    basis set group =>   3
Atom  12C    basis set group =>   2
Atom  13H    basis set group =>   3
Atom  14H    basis set group =>   3
Atom  15H    basis set group =>   3
Atom  16S    basis set group =>   1
Atom  17C    basis set group =>   2
Atom  18C    basis set group =>   2
Atom  19C    basis set group =>   2
Atom  20C    basis set group =>   2
Atom  21H    basis set group =>   3
Atom  22C    basis set group =>   2
Atom  23H    basis set group =>   3
Atom  24H    basis set group =>   3
Atom  25C    basis set group =>   2
Atom  26H    basis set group =>   3
Atom  27H    basis set group =>   3
Atom  28C    basis set group =>   2
Atom  29H    basis set group =>   3
Atom  30H    basis set group =>   3
Atom  31H    basis set group =>   3
Atom  32H    basis set group =>   3
Atom  33H    basis set group =>   3


           ************************************************************
           *        Program running with 24 parallel MPI-processes    *
           *              working on a common directory               *
           ************************************************************
------------------------------------------------------------------------------
                           ORCA GTO INTEGRAL CALCULATION
------------------------------------------------------------------------------

                         BASIS SET STATISTICS AND STARTUP INFO

 # of primitive gaussian shells          ...  294
 # of primitive gaussian functions       ...  534
 # of contracted shells                  ...  154
 # of contracted basis functions         ...  322
 Highest angular momentum                ...    2
 Maximum contraction depth               ...    5
 Integral package used                   ... LIBINT
 Integral threshhold            Thresh   ...  1.000e-10
 Primitive cut-off              TCut     ...  1.000e-11


------------------------------ INTEGRAL EVALUATION ----------------------------


 * One electron integrals 
 Pre-screening matrix                    ... done
 Shell pair data                         ... done (   0.003 sec)



           ************************************************************
           *        Program running with 24 parallel MPI-processes    *
           *              working on a common directory               *
           ************************************************************
-------------------------------------------------------------------------------
                                 ORCA SCF
-------------------------------------------------------------------------------

------------
SCF SETTINGS
------------
Hamiltonian:
 Density Functional     Method          .... DFT(GTOs)
 Exchange Functional    Exchange        .... WB97X-D3
 Correlation Functional Correlation     .... WB97X-D3
 Gradients option       PostSCFGGA      .... off
 Hybrid DFT is turned on
   Fraction HF Exchange ScalHFX         ....  0.195728
   Scaling of DF-GGA-X  ScalDFX         ....  0.000000
   Scaling of DF-GGA-C  ScalDFC         ....  1.000000
   Scaling of DF-LDA-C  ScalLDAC        ....  1.000000
   Perturbative correction              ....  0.000000
   Density functional embedding theory  .... OFF
 Long-range corrected/Screened/Range-Separated Hybrid DFT is turned on
   Amount of maximum screened exact exchange              ....  0.804272
   Range separation parameter mu (erf(mu*r12)/r12)        ....  0.250000


General Settings:
 Integral files         IntName         .... config_3542
 Hartree-Fock type      HFTyp           .... RHF
 Total Charge           Charge          ....    0
 Multiplicity           Mult            ....    1
 Number of Electrons    NEL             ....  134
 Basis Dimension        Dim             ....  322
 Nuclear Repulsion      ENuc            ....   1284.2143203680 Eh

Convergence Acceleration:
 DIIS                   CNVDIIS         .... on
   Start iteration      DIISMaxIt       ....    12
   Startup error        DIISStart       ....  0.200000
   # of expansion vecs  DIISMaxEq       ....     5
   Bias factor          DIISBfac        ....   1.050
   Max. coefficient     DIISMaxC        ....  10.000
 Newton-Raphson         CNVNR           .... off
 SOSCF                  CNVSOSCF        .... on
   Start iteration      SOSCFMaxIt      ....   150
   Startup grad/error   SOSCFStart      ....  0.003300
 Level Shifting         CNVShift        .... on
   Level shift para.    LevelShift      ....    0.2500
   Turn off err/grad.   ShiftErr        ....    0.0010
 Zerner damping         CNVZerner       .... off
 Static damping         CNVDamp         .... on
   Fraction old density DampFac         ....    0.7000
   Max. Damping (<1)    DampMax         ....    0.9800
   Min. Damping (>=0)   DampMin         ....    0.0000
   Turn off err/grad.   DampErr         ....    0.1000
 Fernandez-Rico         CNVRico         .... off

SCF Procedure:
 Maximum # iterations   MaxIter         ....   125
 SCF integral mode      SCFMode         .... Direct
   Integral package                     .... LIBINT
 Reset frequency        DirectResetFreq ....    20
 Integral Threshold     Thresh          ....  1.000e-10 Eh
 Primitive CutOff       TCut            ....  1.000e-11 Eh

Convergence Tolerance:
 Convergence Check Mode ConvCheckMode   .... Total+1el-Energy
 Convergence forced     ConvForced      .... 0
 Energy Change          TolE            ....  1.000e-06 Eh
 1-El. energy change                    ....  1.000e-03 Eh
 Orbital Gradient       TolG            ....  5.000e-05
 Orbital Rotation angle TolX            ....  5.000e-05
 DIIS Error             TolErr          ....  1.000e-06


Diagonalization of the overlap matrix:
Smallest eigenvalue                        ... 6.179e-04
Time for diagonalization                   ...    0.015 sec
Threshold for overlap eigenvalues          ... 1.000e-08
Number of eigenvalues below threshold      ... 0
Time for construction of square roots      ...    0.026 sec
Total time needed                          ...    0.041 sec

-------------------
DFT GRID GENERATION
-------------------

General Integration Accuracy     IntAcc      ...  4.340
Radial Grid Type                 RadialGrid  ... Gauss-Chebyshev
Angular Grid (max. acc.)         AngularGrid ... Lebedev-110
Angular grid pruning method      GridPruning ... 3 (G Style)
Weight generation scheme         WeightScheme... Becke
Basis function cutoff            BFCut       ...    1.0000e-10
Integration weight cutoff        WCut        ...    1.0000e-14
Grids for H and He will be reduced by one unit

# of grid points (after initial pruning)     ...  41088 (   0.0 sec)
# of grid points (after weights+screening)   ...  36972 (   0.0 sec)
nearest neighbour list constructed           ...    0.0 sec
Grid point re-assignment to atoms done       ...    0.0 sec
Grid point division into batches done        ...    0.0 sec
Reduced shell lists constructed in    0.1 sec

Total number of grid points                  ...    36972
Total number of batches                      ...      593
Average number of points per batch           ...       62
Average number of grid points per atom       ...     1087
Average number of shells per batch           ...    80.15 (52.05%)
Average number of basis functions per batch  ...   158.38 (49.19%)
Average number of large shells per batch     ...    52.04 (64.92%)
Average number of large basis fcns per batch ...   104.73 (66.12%)
Maximum spatial batch extension              ...  12.84, 20.97, 12.39 au
Average spatial batch extension              ...   0.13,  0.16,  0.14 au

Time for grid setup =    0.147 sec

------------------------------
INITIAL GUESS: MODEL POTENTIAL
------------------------------
Loading Hartree-Fock densities                     ... done
Calculating cut-offs                               ... done
Setting up the integral package                    ... done
Initializing the effective Hamiltonian             ... done
Starting the Coulomb interaction                   ... done (   0.0 sec)
Reading the grid                                   ... done
Mapping shells                                     ... done
Starting the XC term evaluation                    ... done (   0.0 sec)
  promolecular density results
     # of electrons  =    133.985081054
     EX              =   -126.733278450
     EC              =     -4.621631367
     EX+EC           =   -131.354909817
Transforming the Hamiltonian                       ... done (   0.0 sec)
Diagonalizing the Hamiltonian                      ... done (   0.0 sec)
Back transforming the eigenvectors                 ... done (   0.0 sec)
Now organizing SCF variables                       ... done
                      ------------------
                      INITIAL GUESS DONE (   0.3 sec)
                      ------------------
--------------
SCF ITERATIONS
--------------
ITER       Energy         Delta-E        Max-DP      RMS-DP      [F,P]     Damp
               ***  Starting incremental Fock matrix formation  ***
  0  -1339.4254802495   0.000000000000 0.06754384  0.00154037  0.1649091 0.7000
  1  -1339.6099897168  -0.184509467311 0.04529927  0.00114014  0.0992990 0.7000
                               ***Turning on DIIS***
  2  -1339.7010060787  -0.091016361902 0.08775166  0.00219533  0.0512001 0.0000
  3  -1339.8393061827  -0.138300103924 0.04260858  0.00088168  0.0371145 0.0000
  4  -1339.8675787992  -0.028272616574 0.00681062  0.00019878  0.0073639 0.0000
                      *** Initiating the SOSCF procedure ***
                           *** Shutting down DIIS ***
                      *** Re-Reading the Fockian *** 
                      *** Removing any level shift *** 
ITER      Energy       Delta-E        Grad      Rot      Max-DP    RMS-DP
  5  -1339.86851707  -0.0009382708  0.001755  0.001755  0.003345  0.000096
               *** Restarting incremental Fock matrix formation ***
  6  -1339.86868944  -0.0001723673  0.001351  0.003741  0.002582  0.000065
  7  -1339.86874696  -0.0000575194  0.000717  0.004553  0.003344  0.000065
  8  -1339.86876466  -0.0000177054  0.000487  0.000884  0.000775  0.000021
  9  -1339.86876906  -0.0000044017  0.000119  0.000304  0.000371  0.000009
 10  -1339.86876961  -0.0000005464  0.000042  0.000182  0.000135  0.000003
                  ***Gradient check signals convergence***
              ***Rediagonalizing the Fockian in SOSCF/NRSCF***

               *****************************************************
               *                     SUCCESS                       *
               *           SCF CONVERGED AFTER  11 CYCLES          *
               *****************************************************

Setting up the final grid:

General Integration Accuracy     IntAcc      ...  4.670
Radial Grid Type                 RadialGrid  ... Gauss-Chebyshev
Angular Grid (max. acc.)         AngularGrid ... Lebedev-302
Angular grid pruning method      GridPruning ... 3 (G Style)
Weight generation scheme         WeightScheme... Becke
Basis function cutoff            BFCut       ...    1.0000e-10
Integration weight cutoff        WCut        ...    1.0000e-14
Grids for H and He will be reduced by one unit

# of grid points (after initial pruning)     ... 161752 (   0.0 sec)
# of grid points (after weights+screening)   ... 142902 (   0.1 sec)
nearest neighbour list constructed           ...    0.0 sec
Grid point re-assignment to atoms done       ...    0.0 sec
Grid point division into batches done        ...    0.5 sec
Reduced shell lists constructed in    0.5 sec

Total number of grid points                  ...   142902
Total number of batches                      ...     2249
Average number of points per batch           ...       63
Average number of grid points per atom       ...     4203
Average number of shells per batch           ...    74.16 (48.15%)
Average number of basis functions per batch  ...   144.39 (44.84%)
Average number of large shells per batch     ...    46.42 (62.60%)
Average number of large basis fcns per batch ...    93.07 (64.46%)
Maximum spatial batch extension              ...  11.31, 17.61,  9.94 au
Average spatial batch extension              ...   0.09,  0.09,  0.09 au

Final grid set up in    0.8 sec
Final integration                            ... done (   0.2 sec)
Change in XC energy                          ...     0.007657572
Integrated number of electrons               ...   134.000069872
Previous integrated no of electrons          ...   133.997181500

----------------
TOTAL SCF ENERGY
----------------

Total Energy       :        -1339.86111219 Eh          -36459.47443 eV

Components:
Nuclear Repulsion  :         1284.21432037 Eh           34945.24824 eV
Electronic Energy  :        -2624.07543256 Eh          -71404.72267 eV
One Electron Energy:        -4385.03947898 Eh         -119322.99049 eV
Two Electron Energy:         1760.96404642 Eh           47918.26782 eV

Virial components:
Potential Energy   :        -2671.45180354 Eh          -72693.89926 eV
Kinetic Energy     :         1331.59069135 Eh           36234.42483 eV
Virial Ratio       :            2.00621093


DFT components:
N(Alpha)           :       67.000034936045 electrons
N(Beta)            :       67.000034936045 electrons
N(Total)           :      134.000069872091 electrons
E(XC)              :      -94.269778702699 Eh       
DFET-embed. en.    :        0.000000000000 Eh       

---------------
SCF CONVERGENCE
---------------

  Last Energy change         ...   -1.5501e-07  Tolerance :   1.0000e-06
  Last MAX-Density change    ...    2.7394e-05  Tolerance :   1.0000e-05
  Last RMS-Density change    ...    7.7833e-07  Tolerance :   1.0000e-06
  Last Orbital Gradient      ...    1.1193e-05  Tolerance :   5.0000e-05
  Last Orbital Rotation      ...    3.3836e-05  Tolerance :   5.0000e-05

             **** THE GBW FILE WAS UPDATED (config_3542.gbw) ****
             **** DENSITY FILE WAS UPDATED (config_3542.scfp) ****
             **** ENERGY FILE WAS UPDATED (config_3542.en.tmp) ****
             **** THE GBW FILE WAS UPDATED (config_3542.gbw) ****
             **** DENSITY FILE WAS UPDATED (config_3542.scfp) ****
----------------
ORBITAL ENERGIES
----------------

  NO   OCC          E(Eh)            E(eV) 
   0   2.0000     -88.967027     -2420.9159 
   1   2.0000     -88.964353     -2420.8431 
   2   2.0000     -10.333701      -281.1943 
   3   2.0000     -10.331719      -281.1404 
   4   2.0000     -10.317727      -280.7596 
   5   2.0000     -10.314227      -280.6644 
   6   2.0000     -10.309339      -280.5314 
   7   2.0000     -10.298556      -280.2379 
   8   2.0000     -10.298004      -280.2229 
   9   2.0000     -10.292798      -280.0813 
  10   2.0000     -10.291074      -280.0344 
  11   2.0000     -10.290738      -280.0252 
  12   2.0000     -10.287364      -279.9334 
  13   2.0000     -10.283716      -279.8341 
  14   2.0000     -10.273011      -279.5428 
  15   2.0000     -10.269467      -279.4464 
  16   2.0000      -8.081633      -219.9124 
  17   2.0000      -8.080186      -219.8730 
  18   2.0000      -6.040101      -164.3595 
  19   2.0000      -6.038467      -164.3150 
  20   2.0000      -6.036349      -164.2574 
  21   2.0000      -6.034287      -164.2013 
  22   2.0000      -6.032273      -164.1465 
  23   2.0000      -6.031350      -164.1214 
  24   2.0000      -1.010333       -27.4925 
  25   2.0000      -0.990747       -26.9596 
  26   2.0000      -0.912725       -24.8365 
  27   2.0000      -0.908465       -24.7206 
  28   2.0000      -0.872163       -23.7328 
  29   2.0000      -0.854616       -23.2553 
  30   2.0000      -0.845725       -23.0133 
  31   2.0000      -0.816310       -22.2129 
  32   2.0000      -0.785064       -21.3627 
  33   2.0000      -0.772551       -21.0222 
  34   2.0000      -0.708977       -19.2922 
  35   2.0000      -0.695801       -18.9337 
  36   2.0000      -0.683180       -18.5903 
  37   2.0000      -0.663263       -18.0483 
  38   2.0000      -0.636263       -17.3136 
  39   2.0000      -0.622268       -16.9328 
  40   2.0000      -0.601132       -16.3576 
  41   2.0000      -0.567362       -15.4387 
  42   2.0000      -0.555277       -15.1099 
  43   2.0000      -0.554223       -15.0812 
  44   2.0000      -0.546176       -14.8622 
  45   2.0000      -0.537059       -14.6141 
  46   2.0000      -0.516464       -14.0537 
  47   2.0000      -0.514346       -13.9961 
  48   2.0000      -0.500044       -13.6069 
  49   2.0000      -0.493270       -13.4226 
  50   2.0000      -0.488107       -13.2821 
  51   2.0000      -0.477393       -12.9905 
  52   2.0000      -0.471259       -12.8236 
  53   2.0000      -0.462242       -12.5783 
  54   2.0000      -0.459562       -12.5053 
  55   2.0000      -0.449842       -12.2408 
  56   2.0000      -0.441374       -12.0104 
  57   2.0000      -0.439063       -11.9475 
  58   2.0000      -0.431950       -11.7540 
  59   2.0000      -0.424069       -11.5395 
  60   2.0000      -0.418719       -11.3939 
  61   2.0000      -0.413853       -11.2615 
  62   2.0000      -0.409087       -11.1318 
  63   2.0000      -0.354954        -9.6588 
  64   2.0000      -0.334346        -9.0980 
  65   2.0000      -0.329770        -8.9735 
  66   2.0000      -0.288422        -7.8484 
  67   0.0000       0.026567         0.7229 
  68   0.0000       0.077887         2.1194 
  69   0.0000       0.102746         2.7959 
  70   0.0000       0.121168         3.2972 
  71   0.0000       0.126132         3.4322 
  72   0.0000       0.142469         3.8768 
  73   0.0000       0.152561         4.1514 
  74   0.0000       0.153594         4.1795 
  75   0.0000       0.163938         4.4610 
  76   0.0000       0.171284         4.6609 
  77   0.0000       0.184693         5.0258 
  78   0.0000       0.186898         5.0857 
  79   0.0000       0.197826         5.3831 
  80   0.0000       0.203492         5.5373 
  81   0.0000       0.207207         5.6384 
  82   0.0000       0.213402         5.8070 
  83   0.0000       0.218234         5.9385 
  84   0.0000       0.221909         6.0385 
  85   0.0000       0.228676         6.2226 
  86   0.0000       0.234521         6.3816 
  87   0.0000       0.243365         6.6223 
  88   0.0000       0.247464         6.7338 
  89   0.0000       0.253231         6.8908 
  90   0.0000       0.261233         7.1085 
  91   0.0000       0.264713         7.2032 
  92   0.0000       0.278399         7.5756 
  93   0.0000       0.296390         8.0652 
  94   0.0000       0.307684         8.3725 
  95   0.0000       0.313546         8.5320 
  96   0.0000       0.319044         8.6816 
  97   0.0000       0.331459         9.0194 
  98   0.0000       0.355918         9.6850 
  99   0.0000       0.357459         9.7270 
 100   0.0000       0.387888        10.5550 
 101   0.0000       0.391400        10.6505 
 102   0.0000       0.400869        10.9082 
 103   0.0000       0.427559        11.6345 
 104   0.0000       0.440266        11.9802 
 105   0.0000       0.445732        12.1290 
 106   0.0000       0.463385        12.6093 
 107   0.0000       0.480964        13.0877 
 108   0.0000       0.491124        13.3642 
 109   0.0000       0.495076        13.4717 
 110   0.0000       0.498638        13.5686 
 111   0.0000       0.506689        13.7877 
 112   0.0000       0.514805        14.0085 
 113   0.0000       0.523987        14.2584 
 114   0.0000       0.528371        14.3777 
 115   0.0000       0.535117        14.5613 
 116   0.0000       0.543057        14.7773 
 117   0.0000       0.547631        14.9018 
 118   0.0000       0.550900        14.9908 
 119   0.0000       0.564218        15.3532 
 120   0.0000       0.568604        15.4725 
 121   0.0000       0.595946        16.2165 
 122   0.0000       0.604679        16.4541 
 123   0.0000       0.612901        16.6779 
 124   0.0000       0.623383        16.9631 
 125   0.0000       0.633527        17.2392 
 126   0.0000       0.644634        17.5414 
 127   0.0000       0.651457        17.7270 
 128   0.0000       0.658588        17.9211 
 129   0.0000       0.660706        17.9787 
 130   0.0000       0.672393        18.2968 
 131   0.0000       0.678069        18.4512 
 132   0.0000       0.688976        18.7480 
 133   0.0000       0.697998        18.9935 
 134   0.0000       0.707974        19.2649 
 135   0.0000       0.711278        19.3549 
 136   0.0000       0.715590        19.4722 
 137   0.0000       0.720052        19.5936 
 138   0.0000       0.724165        19.7055 
 139   0.0000       0.730206        19.8699 
 140   0.0000       0.738211        20.0877 
 141   0.0000       0.744663        20.2633 
 142   0.0000       0.746955        20.3257 
 143   0.0000       0.749935        20.4068 
 144   0.0000       0.758231        20.6325 
 145   0.0000       0.763285        20.7700 
 146   0.0000       0.769250        20.9324 
 147   0.0000       0.772782        21.0285 
 148   0.0000       0.779496        21.2112 
 149   0.0000       0.785531        21.3754 
 150   0.0000       0.786813        21.4103 
 151   0.0000       0.790633        21.5142 
 152   0.0000       0.796689        21.6790 
 153   0.0000       0.802198        21.8289 
 154   0.0000       0.806196        21.9377 
 155   0.0000       0.808176        21.9916 
 156   0.0000       0.817977        22.2583 
 157   0.0000       0.820819        22.3356 
 158   0.0000       0.827479        22.5168 
 159   0.0000       0.830767        22.6063 
 160   0.0000       0.837090        22.7784 
 161   0.0000       0.843483        22.9523 
 162   0.0000       0.847951        23.0739 
 163   0.0000       0.852934        23.2095 
 164   0.0000       0.858951        23.3732 
 165   0.0000       0.859708        23.3939 
 166   0.0000       0.863185        23.4885 
 167   0.0000       0.871193        23.7064 
 168   0.0000       0.877273        23.8718 
 169   0.0000       0.889719        24.2105 
 170   0.0000       0.904947        24.6249 
 171   0.0000       0.922270        25.0962 
 172   0.0000       0.931743        25.3540 
 173   0.0000       0.945328        25.7237 
 174   0.0000       0.955810        26.0089 
 175   0.0000       0.966033        26.2871 
 176   0.0000       0.968527        26.3550 
 177   0.0000       0.975584        26.5470 
 178   0.0000       0.998116        27.1601 
 179   0.0000       1.024207        27.8701 
 180   0.0000       1.030000        28.0277 
 181   0.0000       1.071436        29.1553 
 182   0.0000       1.081744        29.4358 
 183   0.0000       1.095201        29.8019 
 184   0.0000       1.118049        30.4237 
 185   0.0000       1.131508        30.7899 
 186   0.0000       1.137261        30.9465 
 187   0.0000       1.152179        31.3524 
 188   0.0000       1.168347        31.7923 
 189   0.0000       1.185339        32.2547 
 190   0.0000       1.211197        32.9584 
 191   0.0000       1.231794        33.5188 
 192   0.0000       1.253046        34.0971 
 193   0.0000       1.263379        34.3783 
 194   0.0000       1.285806        34.9886 
 195   0.0000       1.293169        35.1889 
 196   0.0000       1.307970        35.5917 
 197   0.0000       1.326837        36.1051 
 198   0.0000       1.351893        36.7869 
 199   0.0000       1.364110        37.1193 
 200   0.0000       1.377397        37.4809 
 201   0.0000       1.396975        38.0136 
 202   0.0000       1.414042        38.4781 
 203   0.0000       1.454806        39.5873 
 204   0.0000       1.474121        40.1129 
 205   0.0000       1.475547        40.1517 
 206   0.0000       1.504003        40.9260 
 207   0.0000       1.509620        41.0788 
 208   0.0000       1.529791        41.6277 
 209   0.0000       1.568105        42.6703 
 210   0.0000       1.587287        43.1923 
 211   0.0000       1.601806        43.5874 
 212   0.0000       1.616307        43.9820 
 213   0.0000       1.641889        44.6781 
 214   0.0000       1.649613        44.8882 
 215   0.0000       1.661524        45.2124 
 216   0.0000       1.688118        45.9360 
 217   0.0000       1.693861        46.0923 
 218   0.0000       1.751214        47.6530 
 219   0.0000       1.757414        47.8217 
 220   0.0000       1.787945        48.6525 
 221   0.0000       1.794481        48.8303 
 222   0.0000       1.812390        49.3176 
 223   0.0000       1.816834        49.4386 
 224   0.0000       1.831232        49.8304 
 225   0.0000       1.837449        49.9995 
 226   0.0000       1.848639        50.3040 
 227   0.0000       1.858087        50.5611 
 228   0.0000       1.860656        50.6310 
 229   0.0000       1.862211        50.6733 
 230   0.0000       1.870630        50.9024 
 231   0.0000       1.874324        51.0029 
 232   0.0000       1.883900        51.2635 
 233   0.0000       1.888648        51.3927 
 234   0.0000       1.894661        51.5563 
 235   0.0000       1.902247        51.7628 
 236   0.0000       1.906804        51.8868 
 237   0.0000       1.923126        52.3309 
 238   0.0000       1.929521        52.5049 
 239   0.0000       1.933909        52.6243 
 240   0.0000       1.938986        52.7625 
 241   0.0000       1.946526        52.9677 
 242   0.0000       1.955189        53.2034 
 243   0.0000       1.965665        53.4885 
 244   0.0000       1.978933        53.8495 
 245   0.0000       1.991209        54.1835 
 246   0.0000       1.993587        54.2483 
 247   0.0000       2.008220        54.6464 
 248   0.0000       2.018440        54.9245 
 249   0.0000       2.026706        55.1495 
 250   0.0000       2.036002        55.4024 
 251   0.0000       2.058237        56.0075 
 252   0.0000       2.061232        56.0890 
 253   0.0000       2.073309        56.4176 
 254   0.0000       2.077148        56.5221 
 255   0.0000       2.087774        56.8112 
 256   0.0000       2.105007        57.2801 
 257   0.0000       2.121951        57.7412 
 258   0.0000       2.124330        57.8060 
 259   0.0000       2.145976        58.3950 
 260   0.0000       2.167998        58.9942 
 261   0.0000       2.174663        59.1756 
 262   0.0000       2.184837        59.4524 
 263   0.0000       2.202952        59.9454 
 264   0.0000       2.238565        60.9145 
 265   0.0000       2.251209        61.2585 
 266   0.0000       2.252527        61.2944 
 267   0.0000       2.278504        62.0013 
 268   0.0000       2.288997        62.2868 
 269   0.0000       2.310536        62.8729 
 270   0.0000       2.327361        63.3307 
 271   0.0000       2.336404        63.5768 
 272   0.0000       2.361575        64.2617 
 273   0.0000       2.373609        64.5892 
 274   0.0000       2.381474        64.8032 
 275   0.0000       2.399792        65.3017 
 276   0.0000       2.427124        66.0454 
 277   0.0000       2.449630        66.6578 
 278   0.0000       2.458925        66.9107 
 279   0.0000       2.471671        67.2576 
 280   0.0000       2.495349        67.9019 
 281   0.0000       2.499980        68.0279 
 282   0.0000       2.525455        68.7211 
 283   0.0000       2.534754        68.9742 
 284   0.0000       2.538960        69.0886 
 285   0.0000       2.551346        69.4257 
 286   0.0000       2.560284        69.6689 
 287   0.0000       2.580406        70.2164 
 288   0.0000       2.595845        70.6365 
 289   0.0000       2.620692        71.3127 
 290   0.0000       2.647923        72.0536 
 291   0.0000       2.669646        72.6448 
 292   0.0000       2.680931        72.9518 
 293   0.0000       2.700699        73.4898 
 294   0.0000       2.718362        73.9704 
 295   0.0000       2.734407        74.4070 
 296   0.0000       2.780245        75.6543 
 297   0.0000       2.784320        75.7652 
 298   0.0000       2.799354        76.1743 
 299   0.0000       2.815931        76.6254 
 300   0.0000       2.834348        77.1265 
 301   0.0000       2.876259        78.2670 
 302   0.0000       2.886386        78.5426 
 303   0.0000       2.923935        79.5643 
 304   0.0000       2.966502        80.7226 
 305   0.0000       2.980489        81.1032 
 306   0.0000       2.988023        81.3083 
 307   0.0000       3.006693        81.8163 
 308   0.0000       3.027869        82.3925 
 309   0.0000       3.033268        82.5394 
 310   0.0000       3.052447        83.0613 
 311   0.0000       3.058888        83.2366 
 312   0.0000       3.101382        84.3929 
 313   0.0000       3.119929        84.8976 
 314   0.0000       3.155012        85.8522 
 315   0.0000       3.161702        86.0343 
 316   0.0000       3.166962        86.1774 
 317   0.0000       3.190636        86.8216 
 318   0.0000       3.202323        87.1396 
 319   0.0000       3.281079        89.2827 
 320   0.0000       3.408542        92.7512 
 321   0.0000       3.462527        94.2202 

                    ********************************
                    * MULLIKEN POPULATION ANALYSIS *
                    ********************************

-----------------------
MULLIKEN ATOMIC CHARGES
-----------------------
   0 S :    0.112262
   1 C :   -0.149191
   2 C :   -0.091277
   3 C :    0.006362
   4 C :   -0.123025
   5 H :    0.008758
   6 C :    0.046051
   7 H :    0.011543
   8 H :    0.047666
   9 C :   -0.059014
  10 H :    0.039893
  11 H :    0.029000
  12 C :   -0.037232
  13 H :    0.040537
  14 H :    0.015653
  15 H :    0.048692
  16 S :    0.104101
  17 C :   -0.106027
  18 C :   -0.015102
  19 C :   -0.052181
  20 C :   -0.129587
  21 H :   -0.012141
  22 C :    0.041589
  23 H :    0.034673
  24 H :    0.004358
  25 C :   -0.069039
  26 H :    0.022731
  27 H :    0.027173
  28 C :   -0.040231
  29 H :    0.021702
  30 H :    0.035401
  31 H :    0.039640
  32 H :    0.065672
  33 H :    0.080587
Sum of atomic charges:    0.0000000

--------------------------------
MULLIKEN REDUCED ORBITAL CHARGES
--------------------------------
  0 S s       :     5.839218  s :     5.839218
      pz      :     3.275389  p :     9.944823
      px      :     3.036891
      py      :     3.632544
      dz2     :     0.027660  d :     0.103698
      dxz     :     0.026813
      dyz     :     0.013953
      dx2y2   :     0.014549
      dxy     :     0.020723
  1 C s       :     3.175529  s :     3.175529
      pz      :     0.889704  p :     2.937028
      px      :     0.965053
      py      :     1.082271
      dz2     :     0.010809  d :     0.036634
      dxz     :     0.009159
      dyz     :     0.006906
      dx2y2   :     0.005995
      dxy     :     0.003765
  2 C s       :     3.084549  s :     3.084549
      pz      :     0.978664  p :     2.960315
      px      :     0.987826
      py      :     0.993825
      dz2     :     0.010256  d :     0.046413
      dxz     :     0.014661
      dyz     :     0.007557
      dx2y2   :     0.006483
      dxy     :     0.007456
  3 C s       :     3.212113  s :     3.212113
      pz      :     0.883987  p :     2.746289
      px      :     0.856102
      py      :     1.006199
      dz2     :     0.009929  d :     0.035236
      dxz     :     0.009120
      dyz     :     0.006239
      dx2y2   :     0.005038
      dxy     :     0.004910
  4 C s       :     3.053942  s :     3.053942
      pz      :     0.972344  p :     3.024441
      px      :     0.964638
      py      :     1.087459
      dz2     :     0.010977  d :     0.044642
      dxz     :     0.013846
      dyz     :     0.007693
      dx2y2   :     0.006287
      dxy     :     0.005840
  5 H s       :     0.966638  s :     0.966638
      pz      :     0.006270  p :     0.024604
      px      :     0.012364
      py      :     0.005970
  6 C s       :     2.987231  s :     2.987231
      pz      :     0.909463  p :     2.931759
      px      :     0.998802
      py      :     1.023494
      dz2     :     0.012829  d :     0.034959
      dxz     :     0.005032
      dyz     :     0.006028
      dx2y2   :     0.009254
      dxy     :     0.001815
  7 H s       :     0.965539  s :     0.965539
      pz      :     0.004473  p :     0.022918
      px      :     0.013971
      py      :     0.004474
  8 H s       :     0.930388  s :     0.930388
      pz      :     0.004111  p :     0.021946
      px      :     0.004641
      py      :     0.013194
  9 C s       :     3.047255  s :     3.047255
      pz      :     0.981892  p :     2.974583
      px      :     1.008714
      py      :     0.983977
      dz2     :     0.006662  d :     0.037175
      dxz     :     0.006864
      dyz     :     0.007695
      dx2y2   :     0.009353
      dxy     :     0.006601
 10 H s       :     0.939405  s :     0.939405
      pz      :     0.003880  p :     0.020702
      px      :     0.012851
      py      :     0.003971
 11 H s       :     0.947760  s :     0.947760
      pz      :     0.010393  p :     0.023240
      px      :     0.007433
      py      :     0.005414
 12 C s       :     3.013660  s :     3.013660
      pz      :     1.010711  p :     2.994387
      px      :     1.014771
      py      :     0.968905
      dz2     :     0.006782  d :     0.029184
      dxz     :     0.003035
      dyz     :     0.006645
      dx2y2   :     0.009105
      dxy     :     0.003618
 13 H s       :     0.936300  s :     0.936300
      pz      :     0.010460  p :     0.023163
      px      :     0.006130
      py      :     0.006573
 14 H s       :     0.959402  s :     0.959402
      pz      :     0.005073  p :     0.024945
      px      :     0.014543
      py      :     0.005329
 15 H s       :     0.926881  s :     0.926881
      pz      :     0.012823  p :     0.024427
      px      :     0.006511
      py      :     0.005093
 16 S s       :     5.836263  s :     5.836263
      pz      :     3.353461  p :     9.940305
      px      :     3.251322
      py      :     3.335522
      dz2     :     0.027236  d :     0.119331
      dxz     :     0.025179
      dyz     :     0.018237
      dx2y2   :     0.023241
      dxy     :     0.025438
 17 C s       :     3.146239  s :     3.146239
      pz      :     0.951568  p :     2.923761
      px      :     0.958337
      py      :     1.013857
      dz2     :     0.009661  d :     0.036027
      dxz     :     0.007251
      dyz     :     0.005412
      dx2y2   :     0.006074
      dxy     :     0.007629
 18 C s       :     3.173875  s :     3.173875
      pz      :     0.916424  p :     2.806048
      px      :     0.946928
      py      :     0.942695
      dz2     :     0.006609  d :     0.035180
      dxz     :     0.006855
      dyz     :     0.006301
      dx2y2   :     0.009098
      dxy     :     0.006316
 19 C s       :     3.069778  s :     3.069778
      pz      :     0.975118  p :     2.939596
      px      :     0.949090
      py      :     1.015389
      dz2     :     0.010583  d :     0.042806
      dxz     :     0.007288
      dyz     :     0.008779
      dx2y2   :     0.008378
      dxy     :     0.007778
 20 C s       :     3.067621  s :     3.067621
      pz      :     1.059300  p :     3.019484
      px      :     1.034312
      py      :     0.925872
      dz2     :     0.009864  d :     0.042483
      dxz     :     0.008611
      dyz     :     0.006403
      dx2y2   :     0.007542
      dxy     :     0.010062
 21 H s       :     0.985032  s :     0.985032
      pz      :     0.013737  p :     0.027109
      px      :     0.007283
      py      :     0.006089
 22 C s       :     2.981246  s :     2.981246
      pz      :     1.000466  p :     2.941635
      px      :     1.004028
      py      :     0.937141
      dz2     :     0.007185  d :     0.035530
      dxz     :     0.005155
      dyz     :     0.006027
      dx2y2   :     0.008920
      dxy     :     0.008243
 23 H s       :     0.943706  s :     0.943706
      pz      :     0.012439  p :     0.021621
      px      :     0.005051
      py      :     0.004131
 24 H s       :     0.970357  s :     0.970357
      pz      :     0.007058  p :     0.025285
      px      :     0.013113
      py      :     0.005115
 25 C s       :     3.036935  s :     3.036935
      pz      :     1.024736  p :     2.994145
      px      :     0.993066
      py      :     0.976343
      dz2     :     0.005293  d :     0.037959
      dxz     :     0.010958
      dyz     :     0.007647
      dx2y2   :     0.004686
      dxy     :     0.009374
 26 H s       :     0.954639  s :     0.954639
      pz      :     0.008196  p :     0.022630
      px      :     0.009513
      py      :     0.004921
 27 H s       :     0.950661  s :     0.950661
      pz      :     0.005899  p :     0.022166
      px      :     0.007480
      py      :     0.008786
 28 C s       :     3.006646  s :     3.006646
      pz      :     0.982803  p :     3.005292
      px      :     1.033154
      py      :     0.989335
      dz2     :     0.004691  d :     0.028293
      dxz     :     0.007400
      dyz     :     0.007168
      dx2y2   :     0.001696
      dxy     :     0.007337
 29 H s       :     0.953294  s :     0.953294
      pz      :     0.009042  p :     0.025004
      px      :     0.008533
      py      :     0.007429
 30 H s       :     0.939249  s :     0.939249
      pz      :     0.006976  p :     0.025349
      px      :     0.006789
      py      :     0.011584
 31 H s       :     0.938497  s :     0.938497
      pz      :     0.004336  p :     0.021862
      px      :     0.008340
      py      :     0.009186
 32 H s       :     0.912824  s :     0.912824
      pz      :     0.002690  p :     0.021505
      px      :     0.014382
      py      :     0.004433
 33 H s       :     0.897273  s :     0.897273
      pz      :     0.003772  p :     0.022140
      px      :     0.012180
      py      :     0.006188


                     *******************************
                     * LOEWDIN POPULATION ANALYSIS *
                     *******************************

----------------------
LOEWDIN ATOMIC CHARGES
----------------------
   0 S :    0.399812
   1 C :   -0.203927
   2 C :   -0.075434
   3 C :   -0.063801
   4 C :   -0.179075
   5 H :    0.028043
   6 C :   -0.036160
   7 H :    0.030836
   8 H :    0.039677
   9 C :   -0.040220
  10 H :    0.025819
  11 H :    0.026771
  12 C :   -0.061863
  13 H :    0.028716
  14 H :    0.023366
  15 H :    0.027772
  16 S :    0.444082
  17 C :   -0.209956
  18 C :   -0.065401
  19 C :   -0.061400
  20 C :   -0.203762
  21 H :    0.015477
  22 C :   -0.040274
  23 H :    0.043721
  24 H :    0.013488
  25 C :   -0.039320
  26 H :    0.019365
  27 H :    0.026195
  28 C :   -0.068575
  29 H :    0.020107
  30 H :    0.025058
  31 H :    0.033348
  32 H :    0.034967
  33 H :    0.042548

-------------------------------
LOEWDIN REDUCED ORBITAL CHARGES
-------------------------------
  0 S s       :     5.513576  s :     5.513576
      pz      :     3.307306  p :     9.958979
      px      :     3.051562
      py      :     3.600111
      dz2     :     0.034012  d :     0.127633
      dxz     :     0.033994
      dyz     :     0.015170
      dx2y2   :     0.018856
      dxy     :     0.025602
  1 C s       :     2.932279  s :     2.932279
      pz      :     1.031404  p :     3.184410
      px      :     1.058056
      py      :     1.094950
      dz2     :     0.027523  d :     0.087238
      dxz     :     0.023703
      dyz     :     0.015227
      dx2y2   :     0.013434
      dxy     :     0.007351
  2 C s       :     2.855419  s :     2.855419
      pz      :     1.049459  p :     3.104940
      px      :     1.067338
      py      :     0.988143
      dz2     :     0.027179  d :     0.115075
      dxz     :     0.039779
      dyz     :     0.015071
      dx2y2   :     0.016054
      dxy     :     0.016992
  3 C s       :     2.860535  s :     2.860535
      pz      :     1.047809  p :     3.109915
      px      :     1.044372
      py      :     1.017734
      dz2     :     0.029439  d :     0.093351
      dxz     :     0.027785
      dyz     :     0.013336
      dx2y2   :     0.012866
      dxy     :     0.009925
  4 C s       :     2.912791  s :     2.912791
      pz      :     1.083157  p :     3.161407
      px      :     1.004696
      py      :     1.073554
      dz2     :     0.028448  d :     0.104877
      dxz     :     0.034796
      dyz     :     0.015698
      dx2y2   :     0.013890
      dxy     :     0.012045
  5 H s       :     0.899550  s :     0.899550
      pz      :     0.018674  p :     0.072407
      px      :     0.035647
      py      :     0.018086
  6 C s       :     2.839561  s :     2.839561
      pz      :     1.004441  p :     3.109866
      px      :     1.054790
      py      :     1.050634
      dz2     :     0.032044  d :     0.086733
      dxz     :     0.012165
      dyz     :     0.014933
      dx2y2   :     0.023065
      dxy     :     0.004527
  7 H s       :     0.903147  s :     0.903147
      pz      :     0.013099  p :     0.066018
      px      :     0.039986
      py      :     0.012932
  8 H s       :     0.896410  s :     0.896410
      pz      :     0.012772  p :     0.063913
      px      :     0.012625
      py      :     0.038516
  9 C s       :     2.837372  s :     2.837372
      pz      :     1.030131  p :     3.113103
      px      :     1.051295
      py      :     1.031676
      dz2     :     0.016714  d :     0.089745
      dxz     :     0.016730
      dyz     :     0.017826
      dx2y2   :     0.024237
      dxy     :     0.014237
 10 H s       :     0.913278  s :     0.913278
      pz      :     0.011654  p :     0.060903
      px      :     0.035986
      py      :     0.013263
 11 H s       :     0.903751  s :     0.903751
      pz      :     0.030973  p :     0.069478
      px      :     0.021728
      py      :     0.016777
 12 C s       :     2.826986  s :     2.826986
      pz      :     1.060116  p :     3.160136
      px      :     1.068584
      py      :     1.031436
      dz2     :     0.017741  d :     0.074741
      dxz     :     0.008417
      dyz     :     0.016140
      dx2y2   :     0.024579
      dxy     :     0.007865
 13 H s       :     0.906065  s :     0.906065
      pz      :     0.029718  p :     0.065218
      px      :     0.015383
      py      :     0.020117
 14 H s       :     0.908123  s :     0.908123
      pz      :     0.012894  p :     0.068511
      px      :     0.040076
      py      :     0.015541
 15 H s       :     0.903779  s :     0.903779
      pz      :     0.035564  p :     0.068449
      px      :     0.017210
      py      :     0.015675
 16 S s       :     5.476267  s :     5.476267
      pz      :     3.357547  p :     9.931238
      px      :     3.231029
      py      :     3.342661
      dz2     :     0.033685  d :     0.148413
      dxz     :     0.033389
      dyz     :     0.020345
      dx2y2   :     0.028126
      dxy     :     0.032868
 17 C s       :     2.937821  s :     2.937821
      pz      :     1.042389  p :     3.188195
      px      :     1.054390
      py      :     1.091416
      dz2     :     0.021731  d :     0.083940
      dxz     :     0.016649
      dyz     :     0.013369
      dx2y2   :     0.014277
      dxy     :     0.017914
 18 C s       :     2.850614  s :     2.850614
      pz      :     1.043516  p :     3.121100
      px      :     1.033566
      py      :     1.044018
      dz2     :     0.016585  d :     0.093687
      dxz     :     0.018327
      dyz     :     0.018406
      dx2y2   :     0.023658
      dxy     :     0.016712
 19 C s       :     2.862810  s :     2.862810
      pz      :     1.029518  p :     3.091612
      px      :     1.033605
      py      :     1.028489
      dz2     :     0.025645  d :     0.106978
      dxz     :     0.018310
      dyz     :     0.023725
      dx2y2   :     0.020182
      dxy     :     0.019117
 20 C s       :     2.919619  s :     2.919619
      pz      :     1.083422  p :     3.183392
      px      :     1.063942
      py      :     1.036027
      dz2     :     0.023481  d :     0.100751
      dxz     :     0.021302
      dyz     :     0.015517
      dx2y2   :     0.017966
      dxy     :     0.022484
 21 H s       :     0.901678  s :     0.901678
      pz      :     0.039775  p :     0.082845
      px      :     0.023498
      py      :     0.019572
 22 C s       :     2.830421  s :     2.830421
      pz      :     1.050996  p :     3.121050
      px      :     1.055759
      py      :     1.014295
      dz2     :     0.018204  d :     0.088803
      dxz     :     0.012725
      dyz     :     0.014581
      dx2y2   :     0.020537
      dxy     :     0.022757
 23 H s       :     0.897384  s :     0.897384
      pz      :     0.033412  p :     0.058895
      px      :     0.013598
      py      :     0.011885
 24 H s       :     0.911489  s :     0.911489
      pz      :     0.019732  p :     0.075022
      px      :     0.037902
      py      :     0.017389
 25 C s       :     2.831154  s :     2.831154
      pz      :     1.045380  p :     3.116709
      px      :     1.046448
      py      :     1.024881
      dz2     :     0.012878  d :     0.091457
      dxz     :     0.026735
      dyz     :     0.017381
      dx2y2   :     0.010022
      dxy     :     0.024441
 26 H s       :     0.912487  s :     0.912487
      pz      :     0.025179  p :     0.068147
      px      :     0.027715
      py      :     0.015253
 27 H s       :     0.908547  s :     0.908547
      pz      :     0.018230  p :     0.065259
      px      :     0.021310
      py      :     0.025719
 28 C s       :     2.828546  s :     2.828546
      pz      :     1.042108  p :     3.167838
      px      :     1.077093
      py      :     1.048637
      dz2     :     0.011762  d :     0.072191
      dxz     :     0.018682
      dyz     :     0.018327
      dx2y2   :     0.003707
      dxy     :     0.019712
 29 H s       :     0.908834  s :     0.908834
      pz      :     0.027254  p :     0.071060
      px      :     0.024799
      py      :     0.019006
 30 H s       :     0.903365  s :     0.903365
      pz      :     0.020682  p :     0.071577
      px      :     0.019054
      py      :     0.031841
 31 H s       :     0.906798  s :     0.906798
      pz      :     0.012225  p :     0.059854
      px      :     0.022626
      py      :     0.025003
 32 H s       :     0.899114  s :     0.899114
      pz      :     0.010354  p :     0.065919
      px      :     0.041428
      py      :     0.014137
 33 H s       :     0.888862  s :     0.888862
      pz      :     0.013455  p :     0.068590
      px      :     0.036546
      py      :     0.018589


                      *****************************
                      * MAYER POPULATION ANALYSIS *
                      *****************************

  NA   - Mulliken gross atomic population
  ZA   - Total nuclear charge
  QA   - Mulliken gross atomic charge
  VA   - Mayer's total valence
  BVA  - Mayer's bonded valence
  FA   - Mayer's free valence

  ATOM       NA         ZA         QA         VA         BVA        FA
  0 S     15.8877    16.0000     0.1123     2.4731     2.4731     0.0000
  1 C      6.1492     6.0000    -0.1492     3.8563     3.8563     0.0000
  2 C      6.0913     6.0000    -0.0913     4.0153     4.0153     0.0000
  3 C      5.9936     6.0000     0.0064     3.9188     3.9188    -0.0000
  4 C      6.1230     6.0000    -0.1230     3.8919     3.8919     0.0000
  5 H      0.9912     1.0000     0.0088     1.0055     1.0055    -0.0000
  6 C      5.9539     6.0000     0.0461     3.9470     3.9470    -0.0000
  7 H      0.9885     1.0000     0.0115     0.9968     0.9968     0.0000
  8 H      0.9523     1.0000     0.0477     0.9796     0.9796    -0.0000
  9 C      6.0590     6.0000    -0.0590     4.0674     4.0674     0.0000
 10 H      0.9601     1.0000     0.0399     0.9767     0.9767     0.0000
 11 H      0.9710     1.0000     0.0290     0.9755     0.9755     0.0000
 12 C      6.0372     6.0000    -0.0372     3.9914     3.9914     0.0000
 13 H      0.9595     1.0000     0.0405     0.9860     0.9860     0.0000
 14 H      0.9843     1.0000     0.0157     0.9918     0.9918    -0.0000
 15 H      0.9513     1.0000     0.0487     0.9941     0.9941     0.0000
 16 S     15.8959    16.0000     0.1041     2.5561     2.5561    -0.0000
 17 C      6.1060     6.0000    -0.1060     3.8329     3.8329    -0.0000
 18 C      6.0151     6.0000    -0.0151     3.9594     3.9594    -0.0000
 19 C      6.0522     6.0000    -0.0522     3.9706     3.9706    -0.0000
 20 C      6.1296     6.0000    -0.1296     3.8913     3.8913    -0.0000
 21 H      1.0121     1.0000    -0.0121     1.0026     1.0026     0.0000
 22 C      5.9584     6.0000     0.0416     3.9990     3.9990     0.0000
 23 H      0.9653     1.0000     0.0347     0.9755     0.9755     0.0000
 24 H      0.9956     1.0000     0.0044     1.0012     1.0012     0.0000
 25 C      6.0690     6.0000    -0.0690     4.0968     4.0968    -0.0000
 26 H      0.9773     1.0000     0.0227     0.9801     0.9801     0.0000
 27 H      0.9728     1.0000     0.0272     0.9764     0.9764    -0.0000
 28 C      6.0402     6.0000    -0.0402     3.9848     3.9848    -0.0000
 29 H      0.9783     1.0000     0.0217     0.9896     0.9896    -0.0000
 30 H      0.9646     1.0000     0.0354     0.9974     0.9974    -0.0000
 31 H      0.9604     1.0000     0.0396     0.9846     0.9846    -0.0000
 32 H      0.9343     1.0000     0.0657     0.9960     0.9960     0.0000
 33 H      0.9194     1.0000     0.0806     0.9888     0.9888    -0.0000

  Mayer bond orders larger than 0.100000
B(  0-S ,  1-C ) :   1.1423 B(  0-S ,  4-C ) :   1.1289 B(  1-C ,  2-C ) :   1.6478 
B(  1-C , 32-H ) :   0.9448 B(  2-C ,  3-C ) :   1.2042 B(  2-C ,  6-C ) :   1.0154 
B(  3-C ,  4-C ) :   1.5961 B(  3-C ,  5-H ) :   0.9958 B(  4-C , 20-C ) :   1.0485 
B(  6-C ,  7-H ) :   0.9391 B(  6-C ,  8-H ) :   0.9305 B(  6-C ,  9-C ) :   1.0705 
B(  9-C , 10-H ) :   0.9527 B(  9-C , 11-H ) :   0.9532 B(  9-C , 12-C ) :   1.0740 
B( 12-C , 13-H ) :   0.9727 B( 12-C , 14-H ) :   0.9753 B( 12-C , 15-H ) :   0.9767 
B( 16-S , 17-C ) :   1.1972 B( 16-S , 20-C ) :   1.1645 B( 17-C , 18-C ) :   1.5560 
B( 17-C , 20-C ) :   0.1029 B( 17-C , 33-H ) :   0.9591 B( 18-C , 19-C ) :   1.2713 
B( 18-C , 21-H ) :   1.0080 B( 19-C , 20-C ) :   1.5185 B( 19-C , 22-C ) :   1.0451 
B( 22-C , 23-H ) :   0.9275 B( 22-C , 24-H ) :   0.9445 B( 22-C , 25-C ) :   1.0836 
B( 25-C , 26-H ) :   0.9533 B( 25-C , 27-H ) :   0.9506 B( 25-C , 28-C ) :   1.0757 
B( 28-C , 29-H ) :   0.9752 B( 28-C , 30-H ) :   0.9730 B( 28-C , 31-H ) :   0.9737 


-------
TIMINGS
-------

Total SCF time: 0 days 0 hours 0 min 19 sec 

Total time                  ....      19.407 sec
Sum of individual times     ....      18.546 sec  ( 95.6%)

Fock matrix formation       ....      16.887 sec  ( 87.0%)
  XC integration            ....       1.451 sec  (  8.6% of F)
    Basis function eval.    ....       0.140 sec  (  9.6% of XC)
    Density eval.           ....       0.102 sec  (  7.0% of XC)
    XC-Functional eval.     ....       0.117 sec  (  8.1% of XC)
    XC-Potential eval.      ....       0.126 sec  (  8.7% of XC)
Diagonalization             ....       0.135 sec  (  0.7%)
Density matrix formation    ....       0.027 sec  (  0.1%)
Population analysis         ....       0.071 sec  (  0.4%)
Initial guess               ....       0.168 sec  (  0.9%)
Orbital Transformation      ....       0.000 sec  (  0.0%)
Orbital Orthonormalization  ....       0.000 sec  (  0.0%)
DIIS solution               ....       0.159 sec  (  0.8%)
SOSCF solution              ....       0.129 sec  (  0.7%)
Grid generation             ....       0.969 sec  (  5.0%)


-------------------------------------------------------------------------------
                          DFT DISPERSION CORRECTION                            
                                                                               
                              DFTD3 V3.1  Rev 1                                
                              USING zero damping                               
-------------------------------------------------------------------------------
The omegaB97X-D3 functional is recognized. Fit by Chai et al.
Active option DFTDOPT                   ...         3   

molecular C6(AA) [au] = 14157.975277 


            DFT-D V3
 parameters
 s6 scaling factor         :     1.0000 
 rs6 scaling factor        :     1.2810 
 s8 scaling factor         :     1.0000 
 rs8 scaling factor        :     1.0940 
 Damping factor alpha6     :    14.0000 
 Damping factor alpha8     :    16.0000 
 ad hoc parameters k1-k3   :    16.0000     1.3333    -4.0000 

 Edisp/kcal,au: -8.973908278244  -0.014300831608 
 E6   /kcal   :  -4.022625768 
 E8   /kcal   :  -4.951282511 
 % E8         :  55.174204562 

-------------------------   ----------------
Dispersion correction           -0.014300832
-------------------------   ----------------


-------------------------   --------------------
FINAL SINGLE POINT ENERGY     -1339.875413024457
-------------------------   --------------------


                            ***************************************
                            *     ORCA property calculations      *
                            ***************************************

                                    ---------------------
                                    Active property flags
                                    ---------------------
   (+) Dipole Moment


------------------------------------------------------------------------------
                       ORCA ELECTRIC PROPERTIES CALCULATION
------------------------------------------------------------------------------

Dipole Moment Calculation                       ... on
Quadrupole Moment Calculation                   ... off
Polarizability Calculation                      ... off
GBWName                                         ... config_3542.gbw
Electron density file                           ... config_3542.scfp
The origin for moment calculation is the CENTER OF MASS  = (-226.520976, 91.780138 -52.476662)

-------------
DIPOLE MOMENT
-------------
                                X             Y             Z
Electronic contribution:      0.03253      15.90975      10.35716
Nuclear contribution   :     -0.06452     -16.04955     -10.50846
                        -----------------------------------------
Total Dipole Moment    :     -0.03199      -0.13980      -0.15130
                        -----------------------------------------
Magnitude (a.u.)       :      0.20847
Magnitude (Debye)      :      0.52988



--------------------
Rotational spectrum 
--------------------
 
Rotational constants in cm-1:     0.020909     0.007813     0.007045 
Rotational constants in MHz :   626.824667   234.226131   211.208262 

 Dipole components along the rotational axes: 
x,y,z [a.u.] :    -0.093992    -0.106964     0.152259 
x,y,z [Debye]:    -0.238908    -0.271880     0.387012 

 

Timings for individual modules:

Sum of individual times         ...       20.581 sec (=   0.343 min)
GTO integral calculation        ...        0.804 sec (=   0.013 min)   3.9 %
SCF iterations                  ...       19.778 sec (=   0.330 min)  96.1 %
                             ****ORCA TERMINATED NORMALLY****
TOTAL RUN TIME: 0 days 0 hours 0 minutes 21 seconds 250 msec
