
                                 *****************
                                 * O   R   C   A *
                                 *****************

           --- An Ab Initio, DFT and Semiempirical electronic structure package ---

                  #######################################################
                  #                        -***-                        #
                  #          Department of theory and spectroscopy      #
                  #               Directorship: Frank Neese             #
                  #        Max Planck Institute fuer Kohlenforschung    #
                  #                Kaiser Wilhelm Platz 1               #
                  #                 D-45470 Muelheim/Ruhr               #
                  #                      Germany                        #
                  #                                                     #
                  #                  All rights reserved                #
                  #                        -***-                        #
                  #######################################################


                         Program Version 4.2.1 -  RELEASE  -


 With contributions from (in alphabetic order):
   Daniel Aravena         : Magnetic Suceptibility
   Michael Atanasov       : Ab Initio Ligand Field Theory (pilot matlab implementation)
   Alexander A. Auer      : GIAO ZORA, VPT2
   Ute Becker             : Parallelization
   Giovanni Bistoni       : ED, misc. LED, open-shell LED, HFLD
   Martin Brehm           : Molecular dynamics
   Dmytro Bykov           : SCF Hessian
   Vijay G. Chilkuri      : MRCI spin determinant printing, contributions to CSF-ICE
   Dipayan Datta          : RHF DLPNO-CCSD density
   Achintya Kumar Dutta   : EOM-CC, STEOM-CC
   Dmitry Ganyushin       : Spin-Orbit,Spin-Spin,Magnetic field MRCI
   Miquel Garcia          : C-PCM Hessian, Gaussian charge scheme
   Yang Guo               : DLPNO-NEVPT2, CIM, IAO-localization
   Andreas Hansen         : Spin unrestricted coupled pair/coupled cluster methods
   Benjamin Helmich-Paris : CASSCF linear response (MC-RPA)
   Lee Huntington         : MR-EOM, pCC
   Robert Izsak           : Overlap fitted RIJCOSX, COSX-SCS-MP3, EOM
   Christian Kollmar      : KDIIS, OOCD, Brueckner-CCSD(T), CCSD density
   Simone Kossmann        : Meta GGA functionals, TD-DFT gradient, OOMP2, MP2 Hessian
   Martin Krupicka        : AUTO-CI
   Lucas Lang             : DCDCAS
   Dagmar Lenk            : GEPOL surface, SMD
   Dimitrios Liakos       : Extrapolation schemes; Compound Job, initial MDCI parallelization
   Dimitrios Manganas     : Further ROCIS development; embedding schemes
   Dimitrios Pantazis     : SARC Basis sets
   Taras Petrenko         : DFT Hessian,TD-DFT gradient, ASA, ECA, R-Raman, ABS, FL, XAS/XES, NRVS
   Peter Pinski           : DLPNO-MP2, DLPNO-MP2 Gradient
   Christoph Reimann      : Effective Core Potentials
   Marius Retegan         : Local ZFS, SOC
   Christoph Riplinger    : Optimizer, TS searches, QM/MM, DLPNO-CCSD(T), (RO)-DLPNO pert. Triples
   Tobias Risthaus        : Range-separated hybrids, TD-DFT gradient, RPA, STAB
   Michael Roemelt        : Original ROCIS implementation
   Masaaki Saitow         : Open-shell DLPNO-CCSD energy and density
   Barbara Sandhoefer     : DKH picture change effects
   Avijit Sen             : IP-ROCIS
   Kantharuban Sivalingam : CASSCF convergence, NEVPT2, FIC-MRCI
   Bernardo de Souza      : ESD, SOC TD-DFT
   Georgi Stoychev        : AutoAux, RI-MP2 NMR
   Willem Van den Heuvel  : Paramagnetic NMR
   Boris Wezisla          : Elementary symmetry handling
   Frank Wennmohs         : Technical directorship


 We gratefully acknowledge several colleagues who have allowed us to
 interface, adapt or use parts of their codes:
   Stefan Grimme, W. Hujo, H. Kruse,             : VdW corrections, initial TS optimization,
                  C. Bannwarth                     DFT functionals, gCP, sTDA/sTD-DF
   Ed Valeev, F. Pavosevic, A. Kumar             : LibInt (2-el integral package), F12 methods
   Garnet Chan, S. Sharma, J. Yang, R. Olivares  : DMRG
   Ulf Ekstrom                                   : XCFun DFT Library
   Mihaly Kallay                                 : mrcc  (arbitrary order and MRCC methods)
   Andreas Klamt, Michael Diedenhofen            : otool_cosmo (COSMO solvation model)
   Jiri Pittner, Ondrej Demel                    : Mk-CCSD
   Frank Weinhold                                : gennbo (NPA and NBO analysis)
   Christopher J. Cramer and Donald G. Truhlar   : smd solvation model
   Lars Goerigk                                  : TD-DFT with DH, B97 family of functionals
   V. Asgeirsson, H. Jonsson                     : NEB implementation
   FAccTs GmbH                                   : IRC, NEB, NEB-TS, Multilevel, MM, QM/MM, CI optimization
   S Lehtola, MJT Oliveira, MAL Marques          : LibXC Library


 Your calculation uses the libint2 library for the computation of 2-el integrals
 For citations please refer to: http://libint.valeyev.net

 Your ORCA version has been built with support for libXC version: 4.2.3
 For citations please refer to: https://tddft.org/programs/libxc/

 This ORCA versions uses:
   CBLAS   interface :  Fast vector & matrix operations
   LAPACKE interface :  Fast linear algebra routines
   SCALAPACK package :  Parallel linear algebra routines


Your calculation utilizes the atom-pairwise dispersion correction
with the zero-damping scheme (D30)
Cite in your paper:
S.Grimme, J.Antony, S.Ehrlich and H.Krieg, J.Chem.Phys., 132, (2010), 154104 
   

XCFun DFT library Copyright 2009-2010 Ulf Ekstrom and contributors.
See http://admol.org/xcfun for more information. This is free soft-
ware; see the source code for copying conditions. There is ABSOLUTELY
NO WARRANTY; not even for MERCHANTABILITY or FITNESS FOR A PARTICULAR
PURPOSE. For details see the documentation. Scientific users of this 
library should cite U. Ekstrom, L. Visscher, R. Bast, A. J. Thorvald-
sen and K. Ruud; J.Chem.Theor.Comp. 2010, DOI: 10.1021/ct100117s
XCFun Version 0.99 
----- Orbital basis set information -----
Your calculation utilizes the basis: def2-SVP
   F. Weigend and R. Ahlrichs, Phys. Chem. Chem. Phys. 7, 3297 (2005).

================================================================================
                                        WARNINGS
                       Please study these warnings very carefully!
================================================================================


INFO   : the flag for use of LIBINT has been found!

================================================================================
                                       INPUT FILE
================================================================================
NAME = config_5759.inp
|  1> ! wB97X-D3 SP def2-SVP
|  2> %pal
|  3> nprocs 24
|  4> end
|  5> 
|  6> * xyz 0 1
|  7> S 	 -103.518 	 0.0712328 	 -121.82 	 
|  8> C 	 -105.027 	 -0.842219 	 -122.06 	 
|  9> C 	 -104.85 	 -2.12738 	 -121.523 	 
| 10> C 	 -103.604 	 -2.29087 	 -120.813 	 
| 11> C 	 -102.854 	 -1.15436 	 -120.694 	 
| 12> H 	 -103.283 	 -3.21658 	 -120.363 	 
| 13> C 	 -105.826 	 -3.1749 	 -121.832 	 
| 14> H 	 -105.836 	 -3.43113 	 -122.923 	 
| 15> H 	 -106.744 	 -2.6242 	 -121.572 	 
| 16> C 	 -105.862 	 -4.61223 	 -121.123 	 
| 17> H 	 -105.03 	 -5.11737 	 -121.36 	 
| 18> H 	 -105.845 	 -4.52621 	 -120.095 	 
| 19> C 	 -107.148 	 -5.33307 	 -121.598 	 
| 20> H 	 -108.039 	 -4.93182 	 -121.076 	 
| 21> H 	 -107.314 	 -5.37713 	 -122.696 	 
| 22> H 	 -107.161 	 -6.30418 	 -121.116 	 
| 23> S 	 -100.308 	 -0.183807 	 -121.152 	 
| 24> C 	 -98.9671 	 -0.725067 	 -120.191 	 
| 25> C 	 -99.4458 	 -1.54601 	 -119.149 	 
| 26> C 	 -100.867 	 -1.69442 	 -119.198 	 
| 27> C 	 -101.444 	 -1.12532 	 -120.261 	 
| 28> H 	 -98.6676 	 -1.87224 	 -118.461 	 
| 29> C 	 -101.511 	 -2.70964 	 -118.273 	 
| 30> H 	 -102.527 	 -2.56985 	 -118.299 	 
| 31> H 	 -101.403 	 -2.55026 	 -117.186 	 
| 32> C 	 -101.329 	 -4.16466 	 -118.622 	 
| 33> H 	 -101.621 	 -4.3179 	 -119.641 	 
| 34> H 	 -102.074 	 -4.79698 	 -118.098 	 
| 35> C 	 -99.9297 	 -4.68984 	 -118.291 	 
| 36> H 	 -99.0663 	 -4.19152 	 -118.821 	 
| 37> H 	 -99.8737 	 -5.70213 	 -118.469 	 
| 38> H 	 -99.5862 	 -4.65167 	 -117.238 	 
| 39> H 	 -105.757 	 -0.531911 	 -122.776 	 
| 40> H 	 -97.918 	 -0.588311 	 -120.464 	 
| 41> *
| 42> 
| 43>                          ****END OF INPUT****
================================================================================

                       ****************************
                       * Single Point Calculation *
                       ****************************

---------------------------------
CARTESIAN COORDINATES (ANGSTROEM)
---------------------------------
  S    -103.518000    0.071233  -121.820000
  C    -105.027000   -0.842219  -122.060000
  C    -104.850000   -2.127380  -121.523000
  C    -103.604000   -2.290870  -120.813000
  C    -102.854000   -1.154360  -120.694000
  H    -103.283000   -3.216580  -120.363000
  C    -105.826000   -3.174900  -121.832000
  H    -105.836000   -3.431130  -122.923000
  H    -106.744000   -2.624200  -121.572000
  C    -105.862000   -4.612230  -121.123000
  H    -105.030000   -5.117370  -121.360000
  H    -105.845000   -4.526210  -120.095000
  C    -107.148000   -5.333070  -121.598000
  H    -108.039000   -4.931820  -121.076000
  H    -107.314000   -5.377130  -122.696000
  H    -107.161000   -6.304180  -121.116000
  S    -100.308000   -0.183807  -121.152000
  C    -98.967100   -0.725067  -120.191000
  C    -99.445800   -1.546010  -119.149000
  C    -100.867000   -1.694420  -119.198000
  C    -101.444000   -1.125320  -120.261000
  H    -98.667600   -1.872240  -118.461000
  C    -101.511000   -2.709640  -118.273000
  H    -102.527000   -2.569850  -118.299000
  H    -101.403000   -2.550260  -117.186000
  C    -101.329000   -4.164660  -118.622000
  H    -101.621000   -4.317900  -119.641000
  H    -102.074000   -4.796980  -118.098000
  C    -99.929700   -4.689840  -118.291000
  H    -99.066300   -4.191520  -118.821000
  H    -99.873700   -5.702130  -118.469000
  H    -99.586200   -4.651670  -117.238000
  H    -105.757000   -0.531911  -122.776000
  H    -97.918000   -0.588311  -120.464000

----------------------------
CARTESIAN COORDINATES (A.U.)
----------------------------
  NO LB      ZA    FRAG     MASS         X           Y           Z
   0 S    16.0000    0    32.060  -195.620670    0.134610  -230.206438
   1 C     6.0000    0    12.011  -198.472267   -1.591563  -230.659972
   2 C     6.0000    0    12.011  -198.137785   -4.020166  -229.645189
   3 C     6.0000    0    12.011  -195.783186   -4.329117  -228.303483
   4 C     6.0000    0    12.011  -194.365892   -2.181424  -228.078606
   5 H     1.0000    0     1.008  -195.176584   -6.078455  -227.453107
   6 C     6.0000    0    12.011  -199.982158   -5.999692  -230.229114
   7 H     1.0000    0     1.008  -200.001055   -6.483896  -232.290806
   8 H     1.0000    0     1.008  -201.716926   -4.959019  -229.737786
   9 C     6.0000    0    12.011  -200.050188   -8.715852  -228.889299
  10 H     1.0000    0     1.008  -198.477936   -9.670428  -229.337164
  11 H     1.0000    0     1.008  -200.018063   -8.553297  -226.946660
  12 C     6.0000    0    12.011  -202.480376  -10.078042  -229.786918
  13 H     1.0000    0     1.008  -204.164122   -9.319789  -228.800481
  14 H     1.0000    0     1.008  -202.794070  -10.161303  -231.861838
  15 H     1.0000    0     1.008  -202.504942  -11.913174  -228.876070
  16 S    16.0000    0    32.060  -189.554649   -0.347345  -228.944101
  17 C     6.0000    0    12.011  -187.020715   -1.370178  -227.128074
  18 C     6.0000    0    12.011  -187.925327   -2.921536  -225.158979
  19 C     6.0000    0    12.011  -190.611006   -3.201990  -225.251576
  20 C     6.0000    0    12.011  -191.701378   -2.126547  -227.260355
  21 H     1.0000    0     1.008  -186.454742   -3.538021  -223.858848
  22 C     6.0000    0    12.011  -191.827990   -5.120478  -223.503579
  23 H     1.0000    0     1.008  -193.747951   -4.856313  -223.552712
  24 H     1.0000    0     1.008  -191.623899   -4.819293  -221.449447
  25 C     6.0000    0    12.011  -191.484059   -7.870067  -224.163093
  26 H     1.0000    0     1.008  -192.035859   -8.159648  -226.088724
  27 H     1.0000    0     1.008  -192.891905   -9.064978  -223.172877
  28 C     6.0000    0    12.011  -188.839766   -8.862513  -223.537594
  29 H     1.0000    0     1.008  -187.208176   -7.920825  -224.539149
  30 H     1.0000    0     1.008  -188.733941  -10.775464  -223.873965
  31 H     1.0000    0     1.008  -188.190645   -8.790382  -221.547712
  32 H     1.0000    0     1.008  -199.851767   -1.005166  -232.013016
  33 H     1.0000    0     1.008  -185.038204   -1.111747  -227.643969

--------------------------------
INTERNAL COORDINATES (ANGSTROEM)
--------------------------------
 S      0   0   0     0.000000000000     0.00000000     0.00000000
 C      1   0   0     1.780189650269     0.00000000     0.00000000
 C      2   1   0     1.404043017831   108.13462127     0.00000000
 C      3   2   1     1.443379707527   113.61816595     6.77644684
 C      4   3   2     1.366863555773   114.98068222     4.64301584
 H      4   3   2     1.078183659726   124.02569215   182.07967568
 C      3   2   1     1.464703092917   119.33607002   192.83509164
 H      7   3   2     1.120729589553   112.01335722    64.51006016
 H      7   3   2     1.101632647483    98.50928759   309.19424045
 C      7   3   2     1.603089058318   124.25570037   189.21990124
 H     10   7   3     1.001778128929   109.19727689   294.84537378
 H     10   7   3     1.031732736904   111.44128540    50.76830579
 C     10   7   3     1.548880662156   107.47472680   172.56558432
 H     13  10   7     1.107865769171   110.77473147   283.27548279
 H     13  10   7     1.111351107256   116.45253276    51.48257397
 H     13  10   7     1.084226743859   106.88558542   179.81123143
 S      5   4   3     2.762942837955   141.56023494   232.46112583
 C     17   5   4     1.736230456362   120.69088325   290.47829430
 C     18  17   5     1.410271285693   109.16453131   353.65775186
 C     19  18  17     1.429767802162   111.87025863     0.42184189
 C     20  19  18     1.336702214407   114.33894592     4.93736453
 H     19  18  17     1.088744806141   113.49749312   183.84062979
 C     20  19  18     1.516915504700   118.07151235   171.08250407
 H     23  20  19     1.025901186324   108.28835261   169.39168274
 H     23  20  19     1.103918015253   117.53456521    62.31512636
 C     23  20  19     1.507318214711   116.97454407   286.65174587
 H     26  23  20     1.071031044181   108.99482200   307.78420775
 H     26  23  20     1.108796456704   111.09655722   197.76462315
 C     26  23  20     1.530821845415   113.04624549    75.58277468
 H     29  26  23     1.129018326866   116.49417244   299.03227352
 H     29  26  23     1.029344958748   110.47050666   175.16143332
 H     29  26  23     1.108268107860   118.48568522    60.15298929
 H      2   1   3     1.068572437818   121.35985071   198.36258686
 H     18  17   5     1.092630776400   124.34836751   163.91037918

---------------------------
INTERNAL COORDINATES (A.U.)
---------------------------
 S      0   0   0     0.000000000000     0.00000000     0.00000000
 C      1   0   0     3.364070905449     0.00000000     0.00000000
 C      2   1   0     2.653256783946   108.13462127     0.00000000
 C      3   2   1     2.727592354485   113.61816595     6.77644684
 C      4   3   2     2.582997782848   114.98068222     4.64301584
 H      4   3   2     2.037471838951   124.02569215   182.07967568
 C      3   2   1     2.767887713120   119.33607002   192.83509164
 H      7   3   2     2.117871994437   112.01335722    64.51006016
 H      7   3   2     2.081784003929    98.50928759   309.19424045
 C      7   3   2     3.029399288507   124.25570037   189.21990124
 H     10   7   3     1.893086310627   109.19727689   294.84537378
 H     10   7   3     1.949692316150   111.44128540    50.76830579
 C     10   7   3     2.926960265601   107.47472680   172.56558432
 H     13  10   7     2.093562896878   110.77473147   283.27548279
 H     13  10   7     2.100149231345   116.45253276    51.48257397
 H     13  10   7     2.048891612967   106.88558542   179.81123143
 S      5   4   3     5.221205287415   141.56023494   232.46112583
 C     17   5   4     3.281000067898   120.69088325   290.47829430
 C     18  17   5     2.665026504492   109.16453131   353.65775186
 C     19  18  17     2.701869581185   111.87025863     0.42184189
 C     20  19  18     2.526001107835   114.33894592     4.93736453
 H     19  18  17     2.057429513337   113.49749312   183.84062979
 C     20  19  18     2.866554872182   118.07151235   171.08250407
 H     23  20  19     1.938672282616   108.28835261   169.39168274
 H     23  20  19     2.086102723130   117.53456521    62.31512636
 C     23  20  19     2.848418622475   116.97454407   286.65174587
 H     26  23  20     2.023955354430   108.99482200   307.78420775
 H     26  23  20     2.095321641433   111.09655722   197.76462315
 C     26  23  20     2.892834047658   113.04624549    75.58277468
 H     29  26  23     2.133535437955   116.49417244   299.03227352
 H     29  26  23     1.945180069366   110.47050666   175.16143332
 H     29  26  23     2.094323206815   118.48568522    60.15298929
 H      2   1   3     2.019309261732   121.35985071   198.36258686
 H     18  17   5     2.064772932889   124.34836751   163.91037918

---------------------
BASIS SET INFORMATION
---------------------
There are 3 groups of distinct atoms

 Group   1 Type S   : 10s7p1d contracted to 4s3p1d pattern {5311/511/1}
 Group   2 Type C   : 7s4p1d contracted to 3s2p1d pattern {511/31/1}
 Group   3 Type H   : 4s1p contracted to 2s1p pattern {31/1}

Atom   0S    basis set group =>   1
Atom   1C    basis set group =>   2
Atom   2C    basis set group =>   2
Atom   3C    basis set group =>   2
Atom   4C    basis set group =>   2
Atom   5H    basis set group =>   3
Atom   6C    basis set group =>   2
Atom   7H    basis set group =>   3
Atom   8H    basis set group =>   3
Atom   9C    basis set group =>   2
Atom  10H    basis set group =>   3
Atom  11H    basis set group =>   3
Atom  12C    basis set group =>   2
Atom  13H    basis set group =>   3
Atom  14H    basis set group =>   3
Atom  15H    basis set group =>   3
Atom  16S    basis set group =>   1
Atom  17C    basis set group =>   2
Atom  18C    basis set group =>   2
Atom  19C    basis set group =>   2
Atom  20C    basis set group =>   2
Atom  21H    basis set group =>   3
Atom  22C    basis set group =>   2
Atom  23H    basis set group =>   3
Atom  24H    basis set group =>   3
Atom  25C    basis set group =>   2
Atom  26H    basis set group =>   3
Atom  27H    basis set group =>   3
Atom  28C    basis set group =>   2
Atom  29H    basis set group =>   3
Atom  30H    basis set group =>   3
Atom  31H    basis set group =>   3
Atom  32H    basis set group =>   3
Atom  33H    basis set group =>   3


           ************************************************************
           *        Program running with 24 parallel MPI-processes    *
           *              working on a common directory               *
           ************************************************************
------------------------------------------------------------------------------
                           ORCA GTO INTEGRAL CALCULATION
------------------------------------------------------------------------------

                         BASIS SET STATISTICS AND STARTUP INFO

 # of primitive gaussian shells          ...  294
 # of primitive gaussian functions       ...  534
 # of contracted shells                  ...  154
 # of contracted basis functions         ...  322
 Highest angular momentum                ...    2
 Maximum contraction depth               ...    5
 Integral package used                   ... LIBINT
 Integral threshhold            Thresh   ...  1.000e-10
 Primitive cut-off              TCut     ...  1.000e-11


------------------------------ INTEGRAL EVALUATION ----------------------------


 * One electron integrals 
 Pre-screening matrix                    ... done
 Shell pair data                         ... done (   0.003 sec)



           ************************************************************
           *        Program running with 24 parallel MPI-processes    *
           *              working on a common directory               *
           ************************************************************
-------------------------------------------------------------------------------
                                 ORCA SCF
-------------------------------------------------------------------------------

------------
SCF SETTINGS
------------
Hamiltonian:
 Density Functional     Method          .... DFT(GTOs)
 Exchange Functional    Exchange        .... WB97X-D3
 Correlation Functional Correlation     .... WB97X-D3
 Gradients option       PostSCFGGA      .... off
 Hybrid DFT is turned on
   Fraction HF Exchange ScalHFX         ....  0.195728
   Scaling of DF-GGA-X  ScalDFX         ....  0.000000
   Scaling of DF-GGA-C  ScalDFC         ....  1.000000
   Scaling of DF-LDA-C  ScalLDAC        ....  1.000000
   Perturbative correction              ....  0.000000
   Density functional embedding theory  .... OFF
 Long-range corrected/Screened/Range-Separated Hybrid DFT is turned on
   Amount of maximum screened exact exchange              ....  0.804272
   Range separation parameter mu (erf(mu*r12)/r12)        ....  0.250000


General Settings:
 Integral files         IntName         .... config_5759
 Hartree-Fock type      HFTyp           .... RHF
 Total Charge           Charge          ....    0
 Multiplicity           Mult            ....    1
 Number of Electrons    NEL             ....  134
 Basis Dimension        Dim             ....  322
 Nuclear Repulsion      ENuc            ....   1286.8164561107 Eh

Convergence Acceleration:
 DIIS                   CNVDIIS         .... on
   Start iteration      DIISMaxIt       ....    12
   Startup error        DIISStart       ....  0.200000
   # of expansion vecs  DIISMaxEq       ....     5
   Bias factor          DIISBfac        ....   1.050
   Max. coefficient     DIISMaxC        ....  10.000
 Newton-Raphson         CNVNR           .... off
 SOSCF                  CNVSOSCF        .... on
   Start iteration      SOSCFMaxIt      ....   150
   Startup grad/error   SOSCFStart      ....  0.003300
 Level Shifting         CNVShift        .... on
   Level shift para.    LevelShift      ....    0.2500
   Turn off err/grad.   ShiftErr        ....    0.0010
 Zerner damping         CNVZerner       .... off
 Static damping         CNVDamp         .... on
   Fraction old density DampFac         ....    0.7000
   Max. Damping (<1)    DampMax         ....    0.9800
   Min. Damping (>=0)   DampMin         ....    0.0000
   Turn off err/grad.   DampErr         ....    0.1000
 Fernandez-Rico         CNVRico         .... off

SCF Procedure:
 Maximum # iterations   MaxIter         ....   125
 SCF integral mode      SCFMode         .... Direct
   Integral package                     .... LIBINT
 Reset frequency        DirectResetFreq ....    20
 Integral Threshold     Thresh          ....  1.000e-10 Eh
 Primitive CutOff       TCut            ....  1.000e-11 Eh

Convergence Tolerance:
 Convergence Check Mode ConvCheckMode   .... Total+1el-Energy
 Convergence forced     ConvForced      .... 0
 Energy Change          TolE            ....  1.000e-06 Eh
 1-El. energy change                    ....  1.000e-03 Eh
 Orbital Gradient       TolG            ....  5.000e-05
 Orbital Rotation angle TolX            ....  5.000e-05
 DIIS Error             TolErr          ....  1.000e-06


Diagonalization of the overlap matrix:
Smallest eigenvalue                        ... 6.641e-04
Time for diagonalization                   ...    0.015 sec
Threshold for overlap eigenvalues          ... 1.000e-08
Number of eigenvalues below threshold      ... 0
Time for construction of square roots      ...    0.025 sec
Total time needed                          ...    0.040 sec

-------------------
DFT GRID GENERATION
-------------------

General Integration Accuracy     IntAcc      ...  4.340
Radial Grid Type                 RadialGrid  ... Gauss-Chebyshev
Angular Grid (max. acc.)         AngularGrid ... Lebedev-110
Angular grid pruning method      GridPruning ... 3 (G Style)
Weight generation scheme         WeightScheme... Becke
Basis function cutoff            BFCut       ...    1.0000e-10
Integration weight cutoff        WCut        ...    1.0000e-14
Grids for H and He will be reduced by one unit

# of grid points (after initial pruning)     ...  41088 (   0.0 sec)
# of grid points (after weights+screening)   ...  36977 (   0.0 sec)
nearest neighbour list constructed           ...    0.0 sec
Grid point re-assignment to atoms done       ...    0.0 sec
Grid point division into batches done        ...    0.0 sec
Reduced shell lists constructed in    0.1 sec

Total number of grid points                  ...    36977
Total number of batches                      ...      596
Average number of points per batch           ...       62
Average number of grid points per atom       ...     1088
Average number of shells per batch           ...    66.73 (43.33%)
Average number of basis functions per batch  ...   133.19 (41.36%)
Average number of large shells per batch     ...    40.54 (60.75%)
Average number of large basis fcns per batch ...    84.85 (63.70%)
Maximum spatial batch extension              ...  14.39, 14.35, 18.87 au
Average spatial batch extension              ...   0.16,  0.17,  0.21 au

Time for grid setup =    0.150 sec

------------------------------
INITIAL GUESS: MODEL POTENTIAL
------------------------------
Loading Hartree-Fock densities                     ... done
Calculating cut-offs                               ... done
Setting up the integral package                    ... done
Initializing the effective Hamiltonian             ... done
Starting the Coulomb interaction                   ... done (   0.0 sec)
Reading the grid                                   ... done
Mapping shells                                     ... done
Starting the XC term evaluation                    ... done (   0.0 sec)
  promolecular density results
     # of electrons  =    134.003668038
     EX              =   -126.751793091
     EC              =     -4.626675014
     EX+EC           =   -131.378468104
Transforming the Hamiltonian                       ... done (   0.0 sec)
Diagonalizing the Hamiltonian                      ... done (   0.0 sec)
Back transforming the eigenvectors                 ... done (   0.0 sec)
Now organizing SCF variables                       ... done
                      ------------------
                      INITIAL GUESS DONE (   0.3 sec)
                      ------------------
--------------
SCF ITERATIONS
--------------
ITER       Energy         Delta-E        Max-DP      RMS-DP      [F,P]     Damp
               ***  Starting incremental Fock matrix formation  ***
  0  -1339.3943679338   0.000000000000 0.06494749  0.00162361  0.1656318 0.7000
  1  -1339.5801310749  -0.185763141126 0.04335707  0.00117219  0.0997585 0.7000
                               ***Turning on DIIS***
  2  -1339.6697257257  -0.089594650756 0.07716272  0.00218056  0.0515606 0.0000
  3  -1339.8059485704  -0.136222844743 0.04090217  0.00103609  0.0382825 0.0000
  4  -1339.8350615270  -0.029112956546 0.00708116  0.00019649  0.0073786 0.0000
                      *** Initiating the SOSCF procedure ***
                           *** Shutting down DIIS ***
                      *** Re-Reading the Fockian *** 
                      *** Removing any level shift *** 
ITER      Energy       Delta-E        Grad      Rot      Max-DP    RMS-DP
  5  -1339.83589055  -0.0008290212  0.001560  0.001560  0.002801  0.000098
               *** Restarting incremental Fock matrix formation ***
  6  -1339.83606708  -0.0001765279  0.001264  0.003561  0.002064  0.000064
  7  -1339.83613230  -0.0000652206  0.000640  0.004070  0.002112  0.000061
  8  -1339.83615067  -0.0000183711  0.000229  0.000373  0.000750  0.000016
  9  -1339.83615405  -0.0000033820  0.000046  0.000189  0.000137  0.000005
 10  -1339.83615418  -0.0000001326  0.000035  0.000080  0.000064  0.000002
                 **** Energy Check signals convergence ****
              ***Rediagonalizing the Fockian in SOSCF/NRSCF***

               *****************************************************
               *                     SUCCESS                       *
               *           SCF CONVERGED AFTER  11 CYCLES          *
               *****************************************************

Setting up the final grid:

General Integration Accuracy     IntAcc      ...  4.670
Radial Grid Type                 RadialGrid  ... Gauss-Chebyshev
Angular Grid (max. acc.)         AngularGrid ... Lebedev-302
Angular grid pruning method      GridPruning ... 3 (G Style)
Weight generation scheme         WeightScheme... Becke
Basis function cutoff            BFCut       ...    1.0000e-10
Integration weight cutoff        WCut        ...    1.0000e-14
Grids for H and He will be reduced by one unit

# of grid points (after initial pruning)     ... 161752 (   0.0 sec)
# of grid points (after weights+screening)   ... 142689 (   0.1 sec)
nearest neighbour list constructed           ...    0.0 sec
Grid point re-assignment to atoms done       ...    0.0 sec
Grid point division into batches done        ...    0.5 sec
Reduced shell lists constructed in    0.5 sec

Total number of grid points                  ...   142689
Total number of batches                      ...     2247
Average number of points per batch           ...       63
Average number of grid points per atom       ...     4197
Average number of shells per batch           ...    60.31 (39.16%)
Average number of basis functions per batch  ...   120.16 (37.32%)
Average number of large shells per batch     ...    36.18 (59.99%)
Average number of large basis fcns per batch ...    76.14 (63.36%)
Maximum spatial batch extension              ...  11.85, 13.89, 15.18 au
Average spatial batch extension              ...   0.12,  0.12,  0.13 au

Final grid set up in    0.8 sec
Final integration                            ... done (   0.2 sec)
Change in XC energy                          ...     0.006669503
Integrated number of electrons               ...   133.999933317
Previous integrated no of electrons          ...   134.007537964

----------------
TOTAL SCF ENERGY
----------------

Total Energy       :        -1339.82948475 Eh          -36458.61380 eV

Components:
Nuclear Repulsion  :         1286.81645611 Eh           35016.05595 eV
Electronic Energy  :        -2626.64594086 Eh          -71474.66975 eV
One Electron Energy:        -4390.04078601 Eh         -119459.08297 eV
Two Electron Energy:         1763.39484515 Eh           47984.41322 eV

Virial components:
Potential Energy   :        -2671.59975314 Eh          -72697.92517 eV
Kinetic Energy     :         1331.77026839 Eh           36239.31137 eV
Virial Ratio       :            2.00605151


DFT components:
N(Alpha)           :       66.999966658426 electrons
N(Beta)            :       66.999966658426 electrons
N(Total)           :      133.999933316851 electrons
E(XC)              :      -94.304349122653 Eh       
DFET-embed. en.    :        0.000000000000 Eh       

---------------
SCF CONVERGENCE
---------------

  Last Energy change         ...   -7.1151e-08  Tolerance :   1.0000e-06
  Last MAX-Density change    ...    3.4603e-05  Tolerance :   1.0000e-05
  Last RMS-Density change    ...    7.2551e-07  Tolerance :   1.0000e-06
  Last Orbital Gradient      ...    7.4050e-06  Tolerance :   5.0000e-05
  Last Orbital Rotation      ...    3.2430e-05  Tolerance :   5.0000e-05

             **** THE GBW FILE WAS UPDATED (config_5759.gbw) ****
             **** DENSITY FILE WAS UPDATED (config_5759.scfp) ****
             **** ENERGY FILE WAS UPDATED (config_5759.en.tmp) ****
             **** THE GBW FILE WAS UPDATED (config_5759.gbw) ****
             **** DENSITY FILE WAS UPDATED (config_5759.scfp) ****
----------------
ORBITAL ENERGIES
----------------

  NO   OCC          E(Eh)            E(eV) 
   0   2.0000     -88.964156     -2420.8378 
   1   2.0000     -88.963807     -2420.8283 
   2   2.0000     -10.334553      -281.2175 
   3   2.0000     -10.324744      -280.9506 
   4   2.0000     -10.318524      -280.7813 
   5   2.0000     -10.316816      -280.7348 
   6   2.0000     -10.305428      -280.4250 
   7   2.0000     -10.298846      -280.2459 
   8   2.0000     -10.296690      -280.1872 
   9   2.0000     -10.296639      -280.1858 
  10   2.0000     -10.294664      -280.1320 
  11   2.0000     -10.288792      -279.9723 
  12   2.0000     -10.285573      -279.8847 
  13   2.0000     -10.282056      -279.7890 
  14   2.0000     -10.280617      -279.7498 
  15   2.0000     -10.274060      -279.5714 
  16   2.0000      -8.079480      -219.8538 
  17   2.0000      -8.077869      -219.8100 
  18   2.0000      -6.038040      -164.3034 
  19   2.0000      -6.036574      -164.2635 
  20   2.0000      -6.033745      -164.1865 
  21   2.0000      -6.032627      -164.1561 
  22   2.0000      -6.030235      -164.0910 
  23   2.0000      -6.028374      -164.0404 
  24   2.0000      -1.011595       -27.5269 
  25   2.0000      -0.983322       -26.7575 
  26   2.0000      -0.915122       -24.9017 
  27   2.0000      -0.909730       -24.7550 
  28   2.0000      -0.872286       -23.7361 
  29   2.0000      -0.852105       -23.1870 
  30   2.0000      -0.842525       -22.9263 
  31   2.0000      -0.821392       -22.3512 
  32   2.0000      -0.789919       -21.4948 
  33   2.0000      -0.766959       -20.8700 
  34   2.0000      -0.721179       -19.6243 
  35   2.0000      -0.705255       -19.1910 
  36   2.0000      -0.694978       -18.9113 
  37   2.0000      -0.664445       -18.0805 
  38   2.0000      -0.641972       -17.4689 
  39   2.0000      -0.623079       -16.9548 
  40   2.0000      -0.601650       -16.3717 
  41   2.0000      -0.579770       -15.7764 
  42   2.0000      -0.562883       -15.3168 
  43   2.0000      -0.552778       -15.0418 
  44   2.0000      -0.544408       -14.8141 
  45   2.0000      -0.524546       -14.2736 
  46   2.0000      -0.516403       -14.0521 
  47   2.0000      -0.511631       -13.9222 
  48   2.0000      -0.505989       -13.7687 
  49   2.0000      -0.499242       -13.5851 
  50   2.0000      -0.494833       -13.4651 
  51   2.0000      -0.480399       -13.0723 
  52   2.0000      -0.478276       -13.0146 
  53   2.0000      -0.469742       -12.7823 
  54   2.0000      -0.459214       -12.4959 
  55   2.0000      -0.446023       -12.1369 
  56   2.0000      -0.443118       -12.0579 
  57   2.0000      -0.439191       -11.9510 
  58   2.0000      -0.434184       -11.8147 
  59   2.0000      -0.427648       -11.6369 
  60   2.0000      -0.420437       -11.4407 
  61   2.0000      -0.410353       -11.1663 
  62   2.0000      -0.408896       -11.1266 
  63   2.0000      -0.357662        -9.7325 
  64   2.0000      -0.332919        -9.0592 
  65   2.0000      -0.323585        -8.8052 
  66   2.0000      -0.288235        -7.8433 
  67   0.0000       0.022069         0.6005 
  68   0.0000       0.072253         1.9661 
  69   0.0000       0.100773         2.7422 
  70   0.0000       0.120993         3.2924 
  71   0.0000       0.137849         3.7511 
  72   0.0000       0.138676         3.7736 
  73   0.0000       0.151587         4.1249 
  74   0.0000       0.155241         4.2243 
  75   0.0000       0.162316         4.4168 
  76   0.0000       0.167654         4.5621 
  77   0.0000       0.180420         4.9095 
  78   0.0000       0.184970         5.0333 
  79   0.0000       0.195080         5.3084 
  80   0.0000       0.198937         5.4133 
  81   0.0000       0.203569         5.5394 
  82   0.0000       0.211232         5.7479 
  83   0.0000       0.214863         5.8467 
  84   0.0000       0.224781         6.1166 
  85   0.0000       0.234571         6.3830 
  86   0.0000       0.239756         6.5241 
  87   0.0000       0.243482         6.6255 
  88   0.0000       0.247200         6.7267 
  89   0.0000       0.252162         6.8617 
  90   0.0000       0.255520         6.9531 
  91   0.0000       0.265063         7.2127 
  92   0.0000       0.277559         7.5528 
  93   0.0000       0.289909         7.8888 
  94   0.0000       0.296677         8.0730 
  95   0.0000       0.312828         8.5125 
  96   0.0000       0.329620         8.9694 
  97   0.0000       0.347514         9.4563 
  98   0.0000       0.363695         9.8966 
  99   0.0000       0.368720        10.0334 
 100   0.0000       0.381848        10.3906 
 101   0.0000       0.401247        10.9185 
 102   0.0000       0.409096        11.1321 
 103   0.0000       0.421159        11.4603 
 104   0.0000       0.438082        11.9208 
 105   0.0000       0.445932        12.1344 
 106   0.0000       0.458552        12.4778 
 107   0.0000       0.473857        12.8943 
 108   0.0000       0.488820        13.3015 
 109   0.0000       0.495958        13.4957 
 110   0.0000       0.504842        13.7374 
 111   0.0000       0.511383        13.9154 
 112   0.0000       0.517745        14.0886 
 113   0.0000       0.528121        14.3709 
 114   0.0000       0.534238        14.5373 
 115   0.0000       0.548731        14.9317 
 116   0.0000       0.549561        14.9543 
 117   0.0000       0.558238        15.1904 
 118   0.0000       0.567882        15.4529 
 119   0.0000       0.578472        15.7410 
 120   0.0000       0.585980        15.9453 
 121   0.0000       0.592135        16.1128 
 122   0.0000       0.603092        16.4110 
 123   0.0000       0.606425        16.5017 
 124   0.0000       0.621340        16.9075 
 125   0.0000       0.624389        16.9905 
 126   0.0000       0.641236        17.4489 
 127   0.0000       0.651222        17.7207 
 128   0.0000       0.659217        17.9382 
 129   0.0000       0.668239        18.1837 
 130   0.0000       0.683087        18.5877 
 131   0.0000       0.691962        18.8293 
 132   0.0000       0.700163        19.0524 
 133   0.0000       0.702633        19.1196 
 134   0.0000       0.706818        19.2335 
 135   0.0000       0.715211        19.4619 
 136   0.0000       0.725731        19.7481 
 137   0.0000       0.732525        19.9330 
 138   0.0000       0.736736        20.0476 
 139   0.0000       0.743200        20.2235 
 140   0.0000       0.747635        20.3442 
 141   0.0000       0.755032        20.5455 
 142   0.0000       0.759492        20.6668 
 143   0.0000       0.760010        20.6809 
 144   0.0000       0.762075        20.7371 
 145   0.0000       0.767059        20.8727 
 146   0.0000       0.769127        20.9290 
 147   0.0000       0.774019        21.0621 
 148   0.0000       0.778953        21.1964 
 149   0.0000       0.784734        21.3537 
 150   0.0000       0.788593        21.4587 
 151   0.0000       0.788690        21.4613 
 152   0.0000       0.798932        21.7401 
 153   0.0000       0.804731        21.8978 
 154   0.0000       0.805807        21.9271 
 155   0.0000       0.810194        22.0465 
 156   0.0000       0.814088        22.1525 
 157   0.0000       0.819651        22.3038 
 158   0.0000       0.825901        22.4739 
 159   0.0000       0.830117        22.5886 
 160   0.0000       0.838492        22.8165 
 161   0.0000       0.839996        22.8575 
 162   0.0000       0.844648        22.9840 
 163   0.0000       0.857399        23.3310 
 164   0.0000       0.869351        23.6562 
 165   0.0000       0.871109        23.7041 
 166   0.0000       0.872042        23.7295 
 167   0.0000       0.887883        24.1605 
 168   0.0000       0.897226        24.4148 
 169   0.0000       0.908668        24.7261 
 170   0.0000       0.919535        25.0218 
 171   0.0000       0.930369        25.3166 
 172   0.0000       0.942661        25.6511 
 173   0.0000       0.950725        25.8705 
 174   0.0000       0.962559        26.1926 
 175   0.0000       0.978473        26.6256 
 176   0.0000       0.984878        26.7999 
 177   0.0000       1.008727        27.4489 
 178   0.0000       1.039582        28.2885 
 179   0.0000       1.047844        28.5133 
 180   0.0000       1.060455        28.8564 
 181   0.0000       1.082634        29.4600 
 182   0.0000       1.103716        30.0336 
 183   0.0000       1.118487        30.4356 
 184   0.0000       1.130654        30.7667 
 185   0.0000       1.150212        31.2989 
 186   0.0000       1.161145        31.5964 
 187   0.0000       1.178312        32.0635 
 188   0.0000       1.183040        32.1922 
 189   0.0000       1.187257        32.3069 
 190   0.0000       1.223097        33.2821 
 191   0.0000       1.232000        33.5244 
 192   0.0000       1.239754        33.7354 
 193   0.0000       1.258095        34.2345 
 194   0.0000       1.269221        34.5373 
 195   0.0000       1.286906        35.0185 
 196   0.0000       1.304704        35.5028 
 197   0.0000       1.319632        35.9090 
 198   0.0000       1.342165        36.5222 
 199   0.0000       1.354413        36.8555 
 200   0.0000       1.392094        37.8808 
 201   0.0000       1.399537        38.0833 
 202   0.0000       1.435581        39.0641 
 203   0.0000       1.439340        39.1664 
 204   0.0000       1.444568        39.3087 
 205   0.0000       1.455039        39.5936 
 206   0.0000       1.468406        39.9574 
 207   0.0000       1.493002        40.6266 
 208   0.0000       1.537855        41.8472 
 209   0.0000       1.578527        42.9539 
 210   0.0000       1.603280        43.6275 
 211   0.0000       1.615391        43.9570 
 212   0.0000       1.630316        44.3632 
 213   0.0000       1.644360        44.7453 
 214   0.0000       1.677933        45.6589 
 215   0.0000       1.686309        45.8868 
 216   0.0000       1.693124        46.0723 
 217   0.0000       1.705006        46.3956 
 218   0.0000       1.735546        47.2266 
 219   0.0000       1.750488        47.6332 
 220   0.0000       1.765235        48.0345 
 221   0.0000       1.778390        48.3924 
 222   0.0000       1.793703        48.8091 
 223   0.0000       1.809363        49.2353 
 224   0.0000       1.819903        49.5221 
 225   0.0000       1.834269        49.9130 
 226   0.0000       1.837811        50.0094 
 227   0.0000       1.849275        50.3213 
 228   0.0000       1.858814        50.5809 
 229   0.0000       1.862853        50.6908 
 230   0.0000       1.876211        51.0543 
 231   0.0000       1.886339        51.3299 
 232   0.0000       1.896536        51.6074 
 233   0.0000       1.900028        51.7024 
 234   0.0000       1.911630        52.0181 
 235   0.0000       1.919264        52.2258 
 236   0.0000       1.922739        52.3204 
 237   0.0000       1.935938        52.6795 
 238   0.0000       1.943807        52.8937 
 239   0.0000       1.951662        53.1074 
 240   0.0000       1.954906        53.1957 
 241   0.0000       1.981590        53.9218 
 242   0.0000       1.987690        54.0878 
 243   0.0000       1.994714        54.2789 
 244   0.0000       1.997736        54.3612 
 245   0.0000       2.006669        54.6042 
 246   0.0000       2.024428        55.0875 
 247   0.0000       2.024977        55.1024 
 248   0.0000       2.034702        55.3671 
 249   0.0000       2.042149        55.5697 
 250   0.0000       2.064124        56.1677 
 251   0.0000       2.068215        56.2790 
 252   0.0000       2.078454        56.5576 
 253   0.0000       2.100008        57.1441 
 254   0.0000       2.104940        57.2783 
 255   0.0000       2.108095        57.3642 
 256   0.0000       2.112598        57.4867 
 257   0.0000       2.126363        57.8613 
 258   0.0000       2.142338        58.2960 
 259   0.0000       2.153481        58.5992 
 260   0.0000       2.176753        59.2325 
 261   0.0000       2.190694        59.6118 
 262   0.0000       2.200763        59.8858 
 263   0.0000       2.204659        59.9918 
 264   0.0000       2.234744        60.8105 
 265   0.0000       2.247266        61.1512 
 266   0.0000       2.261400        61.5358 
 267   0.0000       2.282010        62.0966 
 268   0.0000       2.303839        62.6906 
 269   0.0000       2.324792        63.2608 
 270   0.0000       2.345131        63.8143 
 271   0.0000       2.352585        64.0171 
 272   0.0000       2.385548        64.9141 
 273   0.0000       2.407140        65.5016 
 274   0.0000       2.409156        65.5565 
 275   0.0000       2.426146        66.0188 
 276   0.0000       2.463762        67.0424 
 277   0.0000       2.466540        67.1180 
 278   0.0000       2.472222        67.2726 
 279   0.0000       2.486220        67.6535 
 280   0.0000       2.497795        67.9685 
 281   0.0000       2.515857        68.4600 
 282   0.0000       2.529761        68.8383 
 283   0.0000       2.540441        69.1289 
 284   0.0000       2.548335        69.3437 
 285   0.0000       2.556128        69.5558 
 286   0.0000       2.571930        69.9858 
 287   0.0000       2.603512        70.8452 
 288   0.0000       2.617237        71.2186 
 289   0.0000       2.632628        71.6375 
 290   0.0000       2.645334        71.9832 
 291   0.0000       2.666952        72.5714 
 292   0.0000       2.676167        72.8222 
 293   0.0000       2.691417        73.2372 
 294   0.0000       2.715357        73.8886 
 295   0.0000       2.731612        74.3309 
 296   0.0000       2.750661        74.8493 
 297   0.0000       2.766610        75.2833 
 298   0.0000       2.787486        75.8513 
 299   0.0000       2.824237        76.8514 
 300   0.0000       2.849228        77.5314 
 301   0.0000       2.879840        78.3644 
 302   0.0000       2.908832        79.1533 
 303   0.0000       2.918935        79.4283 
 304   0.0000       2.965828        80.7043 
 305   0.0000       2.976389        80.9917 
 306   0.0000       2.998760        81.6004 
 307   0.0000       3.014853        82.0383 
 308   0.0000       3.058527        83.2268 
 309   0.0000       3.072525        83.6077 
 310   0.0000       3.083253        83.8996 
 311   0.0000       3.098863        84.3243 
 312   0.0000       3.121083        84.9290 
 313   0.0000       3.153090        85.7999 
 314   0.0000       3.176217        86.4293 
 315   0.0000       3.201359        87.1134 
 316   0.0000       3.231838        87.9428 
 317   0.0000       3.265286        88.8529 
 318   0.0000       3.291035        89.5536 
 319   0.0000       3.308222        90.0213 
 320   0.0000       3.390021        92.2472 
 321   0.0000       3.437817        93.5477 

                    ********************************
                    * MULLIKEN POPULATION ANALYSIS *
                    ********************************

-----------------------
MULLIKEN ATOMIC CHARGES
-----------------------
   0 S :    0.072377
   1 C :   -0.115891
   2 C :   -0.048478
   3 C :    0.004230
   4 C :   -0.076152
   5 H :   -0.004670
   6 C :   -0.044188
   7 H :    0.052599
   8 H :    0.043710
   9 C :    0.003975
  10 H :    0.008733
  11 H :    0.010524
  12 C :   -0.062636
  13 H :    0.029981
  14 H :    0.049971
  15 H :    0.024948
  16 S :    0.102507
  17 C :   -0.117411
  18 C :   -0.042632
  19 C :   -0.033988
  20 C :   -0.127389
  21 H :    0.032954
  22 C :    0.079360
  23 H :   -0.015616
  24 H :    0.024060
  25 C :   -0.057004
  26 H :    0.028913
  27 H :    0.025749
  28 C :   -0.037900
  29 H :    0.039344
  30 H :    0.008289
  31 H :    0.021709
  32 H :    0.052094
  33 H :    0.067926
Sum of atomic charges:   -0.0000000

--------------------------------
MULLIKEN REDUCED ORBITAL CHARGES
--------------------------------
  0 S s       :     5.848639  s :     5.848639
      pz      :     3.400561  p :     9.979662
      px      :     3.133042
      py      :     3.446059
      dz2     :     0.018552  d :     0.099322
      dxz     :     0.013542
      dyz     :     0.020028
      dx2y2   :     0.017963
      dxy     :     0.029237
  1 C s       :     3.204843  s :     3.204843
      pz      :     1.034708  p :     2.879018
      px      :     0.878767
      py      :     0.965543
      dz2     :     0.004225  d :     0.032030
      dxz     :     0.004809
      dyz     :     0.005841
      dx2y2   :     0.007683
      dxy     :     0.009473
  2 C s       :     3.072549  s :     3.072549
      pz      :     0.984386  p :     2.931134
      px      :     0.984226
      py      :     0.962521
      dz2     :     0.006594  d :     0.044795
      dxz     :     0.006115
      dyz     :     0.008416
      dx2y2   :     0.013308
      dxy     :     0.010362
  3 C s       :     3.192609  s :     3.192609
      pz      :     0.992066  p :     2.769169
      px      :     0.939144
      py      :     0.837959
      dz2     :     0.003871  d :     0.033992
      dxz     :     0.005485
      dyz     :     0.006302
      dx2y2   :     0.009524
      dxy     :     0.008810
  4 C s       :     3.064401  s :     3.064401
      pz      :     1.000631  p :     2.967809
      px      :     1.004621
      py      :     0.962557
      dz2     :     0.005784  d :     0.043941
      dxz     :     0.005836
      dyz     :     0.010134
      dx2y2   :     0.011392
      dxy     :     0.010795
  5 H s       :     0.979644  s :     0.979644
      pz      :     0.007081  p :     0.025026
      px      :     0.005154
      py      :     0.012791
  6 C s       :     3.025287  s :     3.025287
      pz      :     1.031446  p :     2.983697
      px      :     1.024246
      py      :     0.928005
      dz2     :     0.009300  d :     0.035203
      dxz     :     0.002514
      dyz     :     0.006368
      dx2y2   :     0.005843
      dxy     :     0.011178
  7 H s       :     0.925916  s :     0.925916
      pz      :     0.013172  p :     0.021484
      px      :     0.003993
      py      :     0.004319
  8 H s       :     0.932936  s :     0.932936
      pz      :     0.005022  p :     0.023354
      px      :     0.011965
      py      :     0.006367
  9 C s       :     2.973272  s :     2.973272
      pz      :     1.013171  p :     2.986332
      px      :     1.000911
      py      :     0.972251
      dz2     :     0.011696  d :     0.036421
      dxz     :     0.003358
      dyz     :     0.004490
      dx2y2   :     0.007394
      dxy     :     0.009483
 10 H s       :     0.964582  s :     0.964582
      pz      :     0.007020  p :     0.026685
      px      :     0.012002
      py      :     0.007663
 11 H s       :     0.964108  s :     0.964108
      pz      :     0.015313  p :     0.025368
      px      :     0.005209
      py      :     0.004845
 12 C s       :     3.030649  s :     3.030649
      pz      :     0.994301  p :     3.004400
      px      :     0.983149
      py      :     1.026949
      dz2     :     0.006384  d :     0.027587
      dxz     :     0.005294
      dyz     :     0.004328
      dx2y2   :     0.007132
      dxy     :     0.004449
 13 H s       :     0.946573  s :     0.946573
      pz      :     0.006484  p :     0.023446
      px      :     0.010068
      py      :     0.006894
 14 H s       :     0.927723  s :     0.927723
      pz      :     0.013911  p :     0.022306
      px      :     0.003985
      py      :     0.004410
 15 H s       :     0.950584  s :     0.950584
      pz      :     0.006399  p :     0.024468
      px      :     0.005474
      py      :     0.012595
 16 S s       :     5.839495  s :     5.839495
      pz      :     3.470953  p :     9.945341
      px      :     2.969827
      py      :     3.504561
      dz2     :     0.011789  d :     0.112657
      dxz     :     0.038529
      dyz     :     0.013606
      dx2y2   :     0.015539
      dxy     :     0.033193
 17 C s       :     3.168988  s :     3.168988
      pz      :     0.989207  p :     2.914616
      px      :     0.885217
      py      :     1.040192
      dz2     :     0.007351  d :     0.033807
      dxz     :     0.010143
      dyz     :     0.004144
      dx2y2   :     0.006329
      dxy     :     0.005840
 18 C s       :     3.195308  s :     3.195308
      pz      :     0.929553  p :     2.813280
      px      :     0.901902
      py      :     0.981825
      dz2     :     0.006233  d :     0.034043
      dxz     :     0.009717
      dyz     :     0.004282
      dx2y2   :     0.007240
      dxy     :     0.006571
 19 C s       :     3.046706  s :     3.046706
      pz      :     0.983069  p :     2.942033
      px      :     0.954511
      py      :     1.004453
      dz2     :     0.010932  d :     0.045249
      dxz     :     0.009470
      dyz     :     0.006845
      dx2y2   :     0.009161
      dxy     :     0.008841
 20 C s       :     3.029183  s :     3.029183
      pz      :     1.032923  p :     3.051826
      px      :     0.985005
      py      :     1.033898
      dz2     :     0.010346  d :     0.046380
      dxz     :     0.013165
      dyz     :     0.005787
      dx2y2   :     0.008014
      dxy     :     0.009067
 21 H s       :     0.943246  s :     0.943246
      pz      :     0.008664  p :     0.023800
      px      :     0.009136
      py      :     0.006000
 22 C s       :     2.907744  s :     2.907744
      pz      :     1.008695  p :     2.975258
      px      :     1.018319
      py      :     0.948244
      dz2     :     0.010862  d :     0.037639
      dxz     :     0.002026
      dyz     :     0.007602
      dx2y2   :     0.011893
      dxy     :     0.005254
 23 H s       :     0.987890  s :     0.987890
      pz      :     0.006559  p :     0.027725
      px      :     0.015476
      py      :     0.005690
 24 H s       :     0.952874  s :     0.952874
      pz      :     0.013697  p :     0.023066
      px      :     0.005877
      py      :     0.003492
 25 C s       :     3.027217  s :     3.027217
      pz      :     1.021287  p :     2.991827
      px      :     1.002970
      py      :     0.967570
      dz2     :     0.008443  d :     0.037960
      dxz     :     0.006078
      dyz     :     0.005192
      dx2y2   :     0.008261
      dxy     :     0.009986
 26 H s       :     0.947170  s :     0.947170
      pz      :     0.014246  p :     0.023917
      px      :     0.005009
      py      :     0.004663
 27 H s       :     0.952069  s :     0.952069
      pz      :     0.007404  p :     0.022182
      px      :     0.007990
      py      :     0.006788
 28 C s       :     2.987580  s :     2.987580
      pz      :     1.026189  p :     3.021529
      px      :     0.974190
      py      :     1.021150
      dz2     :     0.007193  d :     0.028790
      dxz     :     0.006355
      dyz     :     0.001380
      dx2y2   :     0.009333
      dxy     :     0.004529
 29 H s       :     0.937996  s :     0.937996
      pz      :     0.007172  p :     0.022661
      px      :     0.008784
      py      :     0.006704
 30 H s       :     0.964666  s :     0.964666
      pz      :     0.007066  p :     0.027045
      px      :     0.005090
      py      :     0.014889
 31 H s       :     0.954747  s :     0.954747
      pz      :     0.013244  p :     0.023544
      px      :     0.004768
      py      :     0.005532
 32 H s       :     0.923484  s :     0.923484
      pz      :     0.010413  p :     0.024423
      px      :     0.009382
      py      :     0.004628
 33 H s       :     0.908673  s :     0.908673
      pz      :     0.004319  p :     0.023401
      px      :     0.014410
      py      :     0.004672


                     *******************************
                     * LOEWDIN POPULATION ANALYSIS *
                     *******************************

----------------------
LOEWDIN ATOMIC CHARGES
----------------------
   0 S :    0.371695
   1 C :   -0.185012
   2 C :   -0.061141
   3 C :   -0.063245
   4 C :   -0.167808
   5 H :    0.027054
   6 C :   -0.045490
   7 H :    0.039375
   8 H :    0.041030
   9 C :   -0.021995
  10 H :    0.006202
  11 H :    0.015546
  12 C :   -0.067016
  13 H :    0.030103
  14 H :    0.030683
  15 H :    0.026762
  16 S :    0.416975
  17 C :   -0.193831
  18 C :   -0.067859
  19 C :   -0.063181
  20 C :   -0.195384
  21 H :    0.035501
  22 C :   -0.036554
  23 H :    0.016163
  24 H :    0.036237
  25 C :   -0.034747
  26 H :    0.019150
  27 H :    0.030353
  28 C :   -0.072418
  29 H :    0.031450
  30 H :    0.013429
  31 H :    0.027975
  32 H :    0.026431
  33 H :    0.033564

-------------------------------
LOEWDIN REDUCED ORBITAL CHARGES
-------------------------------
  0 S s       :     5.530408  s :     5.530408
      pz      :     3.393379  p :     9.977089
      px      :     3.132819
      py      :     3.450891
      dz2     :     0.022141  d :     0.120808
      dxz     :     0.016862
      dyz     :     0.024144
      dx2y2   :     0.021283
      dxy     :     0.036378
  1 C s       :     2.939938  s :     2.939938
      pz      :     1.095188  p :     3.169497
      px      :     1.016951
      py      :     1.057359
      dz2     :     0.009120  d :     0.075577
      dxz     :     0.010609
      dyz     :     0.013578
      dx2y2   :     0.019712
      dxy     :     0.022557
  2 C s       :     2.860051  s :     2.860051
      pz      :     1.005311  p :     3.089548
      px      :     1.027547
      py      :     1.056689
      dz2     :     0.013937  d :     0.111542
      dxz     :     0.014538
      dyz     :     0.020353
      dx2y2   :     0.035502
      dxy     :     0.027211
  3 C s       :     2.862382  s :     2.862382
      pz      :     1.023077  p :     3.109778
      px      :     1.033984
      py      :     1.052717
      dz2     :     0.009273  d :     0.091085
      dxz     :     0.013643
      dyz     :     0.014783
      dx2y2   :     0.027895
      dxy     :     0.025490
  4 C s       :     2.915229  s :     2.915229
      pz      :     1.030670  p :     3.149563
      px      :     1.052200
      py      :     1.066694
      dz2     :     0.012779  d :     0.103016
      dxz     :     0.012504
      dyz     :     0.021075
      dx2y2   :     0.029128
      dxy     :     0.027530
  5 H s       :     0.900206  s :     0.900206
      pz      :     0.021012  p :     0.072739
      px      :     0.016135
      py      :     0.035593
  6 C s       :     2.837200  s :     2.837200
      pz      :     1.052113  p :     3.120837
      px      :     1.061793
      py      :     1.006931
      dz2     :     0.022989  d :     0.087453
      dxz     :     0.005872
      dyz     :     0.016000
      dx2y2   :     0.015063
      dxy     :     0.027529
  7 H s       :     0.897623  s :     0.897623
      pz      :     0.038185  p :     0.063002
      px      :     0.011844
      py      :     0.012973
  8 H s       :     0.890702  s :     0.890702
      pz      :     0.014445  p :     0.068268
      px      :     0.033528
      py      :     0.020295
  9 C s       :     2.806337  s :     2.806337
      pz      :     1.069178  p :     3.127628
      px      :     1.049375
      py      :     1.009075
      dz2     :     0.028107  d :     0.088030
      dxz     :     0.008111
      dyz     :     0.011264
      dx2y2   :     0.018207
      dxy     :     0.022341
 10 H s       :     0.909013  s :     0.909013
      pz      :     0.021336  p :     0.084785
      px      :     0.037168
      py      :     0.026281
 11 H s       :     0.906460  s :     0.906460
      pz      :     0.043353  p :     0.077993
      px      :     0.016977
      py      :     0.017664
 12 C s       :     2.842531  s :     2.842531
      pz      :     1.051100  p :     3.155642
      px      :     1.030642
      py      :     1.073900
      dz2     :     0.017329  d :     0.068842
      dxz     :     0.012482
      dyz     :     0.010381
      dx2y2   :     0.016801
      dxy     :     0.011850
 13 H s       :     0.905236  s :     0.905236
      pz      :     0.017633  p :     0.064661
      px      :     0.029109
      py      :     0.017919
 14 H s       :     0.906256  s :     0.906256
      pz      :     0.039111  p :     0.063061
      px      :     0.011917
      py      :     0.012033
 15 H s       :     0.903731  s :     0.903731
      pz      :     0.018406  p :     0.069507
      px      :     0.015515
      py      :     0.035586
 16 S s       :     5.486735  s :     5.486735
      pz      :     3.475278  p :     9.956382
      px      :     2.979635
      py      :     3.501469
      dz2     :     0.012573  d :     0.139909
      dxz     :     0.050045
      dyz     :     0.014685
      dx2y2   :     0.019690
      dxy     :     0.042915
 17 C s       :     2.944639  s :     2.944639
      pz      :     1.065173  p :     3.170973
      px      :     1.028335
      py      :     1.077466
      dz2     :     0.016200  d :     0.078218
      dxz     :     0.024313
      dyz     :     0.010811
      dx2y2   :     0.013924
      dxy     :     0.012969
 18 C s       :     2.877743  s :     2.877743
      pz      :     1.040090  p :     3.102726
      px      :     1.033662
      py      :     1.028974
      dz2     :     0.015142  d :     0.087391
      dxz     :     0.025159
      dyz     :     0.012301
      dx2y2   :     0.018578
      dxy     :     0.016210
 19 C s       :     2.843780  s :     2.843780
      pz      :     1.040228  p :     3.103809
      px      :     1.047124
      py      :     1.016457
      dz2     :     0.026276  d :     0.115592
      dxz     :     0.025215
      dyz     :     0.018178
      dx2y2   :     0.024995
      dxy     :     0.020928
 20 C s       :     2.890380  s :     2.890380
      pz      :     1.091179  p :     3.192193
      px      :     1.035013
      py      :     1.066002
      dz2     :     0.023800  d :     0.112810
      dxz     :     0.033682
      dyz     :     0.014459
      dx2y2   :     0.019965
      dxy     :     0.020904
 21 H s       :     0.893535  s :     0.893535
      pz      :     0.025332  p :     0.070965
      px      :     0.027993
      py      :     0.017640
 22 C s       :     2.804050  s :     2.804050
      pz      :     1.041819  p :     3.138389
      px      :     1.081116
      py      :     1.015454
      dz2     :     0.027628  d :     0.094115
      dxz     :     0.005324
      dyz     :     0.018572
      dx2y2   :     0.029707
      dxy     :     0.012884
 23 H s       :     0.899662  s :     0.899662
      pz      :     0.019934  p :     0.084175
      px      :     0.044484
      py      :     0.019757
 24 H s       :     0.897759  s :     0.897759
      pz      :     0.038099  p :     0.066004
      px      :     0.015539
      py      :     0.012366
 25 C s       :     2.823828  s :     2.823828
      pz      :     1.071254  p :     3.118157
      px      :     1.031403
      py      :     1.015500
      dz2     :     0.021620  d :     0.092762
      dxz     :     0.014492
      dyz     :     0.012034
      dx2y2   :     0.021937
      dxy     :     0.022679
 26 H s       :     0.909541  s :     0.909541
      pz      :     0.039717  p :     0.071309
      px      :     0.016362
      py      :     0.015230
 27 H s       :     0.906033  s :     0.906033
      pz      :     0.019033  p :     0.063614
      px      :     0.023852
      py      :     0.020729
 28 C s       :     2.827084  s :     2.827084
      pz      :     1.073012  p :     3.172680
      px      :     1.022535
      py      :     1.077133
      dz2     :     0.018626  d :     0.072654
      dxz     :     0.015196
      dyz     :     0.003686
      dx2y2   :     0.022778
      dxy     :     0.012368
 29 H s       :     0.906903  s :     0.906903
      pz      :     0.018040  p :     0.061647
      px      :     0.026581
      py      :     0.017025
 30 H s       :     0.907140  s :     0.907140
      pz      :     0.019657  p :     0.079430
      px      :     0.017213
      py      :     0.042560
 31 H s       :     0.907600  s :     0.907600
      pz      :     0.035982  p :     0.064426
      px      :     0.014662
      py      :     0.013782
 32 H s       :     0.895509  s :     0.895509
      pz      :     0.032087  p :     0.078060
      px      :     0.030215
      py      :     0.015758
 33 H s       :     0.893115  s :     0.893115
      pz      :     0.014386  p :     0.073322
      px      :     0.043614
      py      :     0.015322


                      *****************************
                      * MAYER POPULATION ANALYSIS *
                      *****************************

  NA   - Mulliken gross atomic population
  ZA   - Total nuclear charge
  QA   - Mulliken gross atomic charge
  VA   - Mayer's total valence
  BVA  - Mayer's bonded valence
  FA   - Mayer's free valence

  ATOM       NA         ZA         QA         VA         BVA        FA
  0 S     15.9276    16.0000     0.0724     2.4618     2.4618    -0.0000
  1 C      6.1159     6.0000    -0.1159     3.8310     3.8310     0.0000
  2 C      6.0485     6.0000    -0.0485     3.9545     3.9545    -0.0000
  3 C      5.9958     6.0000     0.0042     3.9230     3.9230     0.0000
  4 C      6.0762     6.0000    -0.0762     3.8705     3.8705     0.0000
  5 H      1.0047     1.0000    -0.0047     1.0157     1.0157     0.0000
  6 C      6.0442     6.0000    -0.0442     3.9759     3.9759    -0.0000
  7 H      0.9474     1.0000     0.0526     0.9803     0.9803    -0.0000
  8 H      0.9563     1.0000     0.0437     0.9869     0.9869     0.0000
  9 C      5.9960     6.0000     0.0040     4.0821     4.0821     0.0000
 10 H      0.9913     1.0000     0.0087     0.9779     0.9779    -0.0000
 11 H      0.9895     1.0000     0.0105     0.9803     0.9803     0.0000
 12 C      6.0626     6.0000    -0.0626     4.0164     4.0164     0.0000
 13 H      0.9700     1.0000     0.0300     0.9864     0.9864     0.0000
 14 H      0.9500     1.0000     0.0500     0.9908     0.9908     0.0000
 15 H      0.9751     1.0000     0.0249     0.9843     0.9843     0.0000
 16 S     15.8975    16.0000     0.1025     2.4977     2.4977    -0.0000
 17 C      6.1174     6.0000    -0.1174     3.8534     3.8534     0.0000
 18 C      6.0426     6.0000    -0.0426     3.9256     3.9256     0.0000
 19 C      6.0340     6.0000    -0.0340     4.0679     4.0679    -0.0000
 20 C      6.1274     6.0000    -0.1274     3.9297     3.9297    -0.0000
 21 H      0.9670     1.0000     0.0330     0.9984     0.9984    -0.0000
 22 C      5.9206     6.0000     0.0794     3.9893     3.9893    -0.0000
 23 H      1.0156     1.0000    -0.0156     0.9998     0.9998    -0.0000
 24 H      0.9759     1.0000     0.0241     0.9897     0.9897    -0.0000
 25 C      6.0570     6.0000    -0.0570     4.1059     4.1059    -0.0000
 26 H      0.9711     1.0000     0.0289     0.9771     0.9771     0.0000
 27 H      0.9743     1.0000     0.0257     0.9735     0.9735    -0.0000
 28 C      6.0379     6.0000    -0.0379     3.9904     3.9904    -0.0000
 29 H      0.9607     1.0000     0.0393     1.0009     1.0009    -0.0000
 30 H      0.9917     1.0000     0.0083     0.9914     0.9914    -0.0000
 31 H      0.9783     1.0000     0.0217     0.9888     0.9888     0.0000
 32 H      0.9479     1.0000     0.0521     1.0039     1.0039     0.0000
 33 H      0.9321     1.0000     0.0679     0.9938     0.9938    -0.0000

  Mayer bond orders larger than 0.100000
B(  0-S ,  1-C ) :   1.1268 B(  0-S ,  4-C ) :   1.1409 B(  1-C ,  2-C ) :   1.5853 
B(  1-C , 32-H ) :   0.9780 B(  2-C ,  3-C ) :   1.2548 B(  2-C ,  6-C ) :   1.0118 
B(  3-C ,  4-C ) :   1.5470 B(  3-C ,  5-H ) :   0.9891 B(  4-C , 20-C ) :   1.0377 
B(  6-C ,  7-H ) :   0.9411 B(  6-C ,  8-H ) :   0.9475 B(  6-C ,  9-C ) :   1.0697 
B(  9-C , 10-H ) :   0.9489 B(  9-C , 11-H ) :   0.9517 B(  9-C , 12-C ) :   1.0909 
B( 12-C , 13-H ) :   0.9739 B( 12-C , 14-H ) :   0.9761 B( 12-C , 15-H ) :   0.9693 
B( 16-S , 17-C ) :   1.1649 B( 16-S , 20-C ) :   1.1329 B( 17-C , 18-C ) :   1.6023 
B( 17-C , 33-H ) :   0.9669 B( 18-C , 19-C ) :   1.2205 B( 18-C , 21-H ) :   0.9903 
B( 19-C , 20-C ) :   1.6293 B( 19-C , 22-C ) :   1.0606 B( 22-C , 23-H ) :   0.9113 
B( 22-C , 24-H ) :   0.9300 B( 22-C , 25-C ) :   1.0845 B( 25-C , 26-H ) :   0.9387 
B( 25-C , 27-H ) :   0.9500 B( 25-C , 28-C ) :   1.0863 B( 28-C , 29-H ) :   0.9671 
B( 28-C , 30-H ) :   0.9687 B( 28-C , 31-H ) :   0.9730 

-------
TIMINGS
-------

Total SCF time: 0 days 0 hours 0 min 19 sec 

Total time                  ....      19.842 sec
Sum of individual times     ....      18.967 sec  ( 95.6%)

Fock matrix formation       ....      17.297 sec  ( 87.2%)
  XC integration            ....       1.465 sec  (  8.5% of F)
    Basis function eval.    ....       0.142 sec  (  9.7% of XC)
    Density eval.           ....       0.099 sec  (  6.8% of XC)
    XC-Functional eval.     ....       0.112 sec  (  7.7% of XC)
    XC-Potential eval.      ....       0.111 sec  (  7.6% of XC)
Diagonalization             ....       0.143 sec  (  0.7%)
Density matrix formation    ....       0.022 sec  (  0.1%)
Population analysis         ....       0.054 sec  (  0.3%)
Initial guess               ....       0.164 sec  (  0.8%)
Orbital Transformation      ....       0.000 sec  (  0.0%)
Orbital Orthonormalization  ....       0.000 sec  (  0.0%)
DIIS solution               ....       0.159 sec  (  0.8%)
SOSCF solution              ....       0.129 sec  (  0.6%)
Grid generation             ....       0.999 sec  (  5.0%)


-------------------------------------------------------------------------------
                          DFT DISPERSION CORRECTION                            
                                                                               
                              DFTD3 V3.1  Rev 1                                
                              USING zero damping                               
-------------------------------------------------------------------------------
The omegaB97X-D3 functional is recognized. Fit by Chai et al.
Active option DFTDOPT                   ...         3   

molecular C6(AA) [au] = 14166.168167 


            DFT-D V3
 parameters
 s6 scaling factor         :     1.0000 
 rs6 scaling factor        :     1.2810 
 s8 scaling factor         :     1.0000 
 rs8 scaling factor        :     1.0940 
 Damping factor alpha6     :    14.0000 
 Damping factor alpha8     :    16.0000 
 ad hoc parameters k1-k3   :    16.0000     1.3333    -4.0000 

 Edisp/kcal,au: -9.003194300503  -0.014347501850 
 E6   /kcal   :  -4.084338435 
 E8   /kcal   :  -4.918855865 
 % E8         :  54.634563037 

-------------------------   ----------------
Dispersion correction           -0.014347502
-------------------------   ----------------


-------------------------   --------------------
FINAL SINGLE POINT ENERGY     -1339.843832251958
-------------------------   --------------------


                            ***************************************
                            *     ORCA property calculations      *
                            ***************************************

                                    ---------------------
                                    Active property flags
                                    ---------------------
   (+) Dipole Moment


------------------------------------------------------------------------------
                       ORCA ELECTRIC PROPERTIES CALCULATION
------------------------------------------------------------------------------

Dipole Moment Calculation                       ... on
Quadrupole Moment Calculation                   ... off
Polarizability Calculation                      ... off
GBWName                                         ... config_5759.gbw
Electron density file                           ... config_5759.scfp
The origin for moment calculation is the CENTER OF MASS  = (-193.842005, -3.819379 -227.819975)

-------------
DIPOLE MOMENT
-------------
                                X             Y             Z
Electronic contribution:     10.54253      28.25188      -8.73535
Nuclear contribution   :    -10.69980     -29.12320       8.84870
                        -----------------------------------------
Total Dipole Moment    :     -0.15727      -0.87132       0.11336
                        -----------------------------------------
Magnitude (a.u.)       :      0.89262
Magnitude (Debye)      :      2.26887



--------------------
Rotational spectrum 
--------------------
 
Rotational constants in cm-1:     0.018313     0.009186     0.006404 
Rotational constants in MHz :   549.001590   275.381687   191.980825 

 Dipole components along the rotational axes: 
x,y,z [a.u.] :     0.365615     0.782191    -0.226449 
x,y,z [Debye]:     0.929319     1.988172    -0.575586 

 

Timings for individual modules:

Sum of individual times         ...       20.997 sec (=   0.350 min)
GTO integral calculation        ...        0.774 sec (=   0.013 min)   3.7 %
SCF iterations                  ...       20.223 sec (=   0.337 min)  96.3 %
                             ****ORCA TERMINATED NORMALLY****
TOTAL RUN TIME: 0 days 0 hours 0 minutes 21 seconds 688 msec
