
                                 *****************
                                 * O   R   C   A *
                                 *****************

           --- An Ab Initio, DFT and Semiempirical electronic structure package ---

                  #######################################################
                  #                        -***-                        #
                  #          Department of theory and spectroscopy      #
                  #               Directorship: Frank Neese             #
                  #        Max Planck Institute fuer Kohlenforschung    #
                  #                Kaiser Wilhelm Platz 1               #
                  #                 D-45470 Muelheim/Ruhr               #
                  #                      Germany                        #
                  #                                                     #
                  #                  All rights reserved                #
                  #                        -***-                        #
                  #######################################################


                         Program Version 4.2.1 -  RELEASE  -


 With contributions from (in alphabetic order):
   Daniel Aravena         : Magnetic Suceptibility
   Michael Atanasov       : Ab Initio Ligand Field Theory (pilot matlab implementation)
   Alexander A. Auer      : GIAO ZORA, VPT2
   Ute Becker             : Parallelization
   Giovanni Bistoni       : ED, misc. LED, open-shell LED, HFLD
   Martin Brehm           : Molecular dynamics
   Dmytro Bykov           : SCF Hessian
   Vijay G. Chilkuri      : MRCI spin determinant printing, contributions to CSF-ICE
   Dipayan Datta          : RHF DLPNO-CCSD density
   Achintya Kumar Dutta   : EOM-CC, STEOM-CC
   Dmitry Ganyushin       : Spin-Orbit,Spin-Spin,Magnetic field MRCI
   Miquel Garcia          : C-PCM Hessian, Gaussian charge scheme
   Yang Guo               : DLPNO-NEVPT2, CIM, IAO-localization
   Andreas Hansen         : Spin unrestricted coupled pair/coupled cluster methods
   Benjamin Helmich-Paris : CASSCF linear response (MC-RPA)
   Lee Huntington         : MR-EOM, pCC
   Robert Izsak           : Overlap fitted RIJCOSX, COSX-SCS-MP3, EOM
   Christian Kollmar      : KDIIS, OOCD, Brueckner-CCSD(T), CCSD density
   Simone Kossmann        : Meta GGA functionals, TD-DFT gradient, OOMP2, MP2 Hessian
   Martin Krupicka        : AUTO-CI
   Lucas Lang             : DCDCAS
   Dagmar Lenk            : GEPOL surface, SMD
   Dimitrios Liakos       : Extrapolation schemes; Compound Job, initial MDCI parallelization
   Dimitrios Manganas     : Further ROCIS development; embedding schemes
   Dimitrios Pantazis     : SARC Basis sets
   Taras Petrenko         : DFT Hessian,TD-DFT gradient, ASA, ECA, R-Raman, ABS, FL, XAS/XES, NRVS
   Peter Pinski           : DLPNO-MP2, DLPNO-MP2 Gradient
   Christoph Reimann      : Effective Core Potentials
   Marius Retegan         : Local ZFS, SOC
   Christoph Riplinger    : Optimizer, TS searches, QM/MM, DLPNO-CCSD(T), (RO)-DLPNO pert. Triples
   Tobias Risthaus        : Range-separated hybrids, TD-DFT gradient, RPA, STAB
   Michael Roemelt        : Original ROCIS implementation
   Masaaki Saitow         : Open-shell DLPNO-CCSD energy and density
   Barbara Sandhoefer     : DKH picture change effects
   Avijit Sen             : IP-ROCIS
   Kantharuban Sivalingam : CASSCF convergence, NEVPT2, FIC-MRCI
   Bernardo de Souza      : ESD, SOC TD-DFT
   Georgi Stoychev        : AutoAux, RI-MP2 NMR
   Willem Van den Heuvel  : Paramagnetic NMR
   Boris Wezisla          : Elementary symmetry handling
   Frank Wennmohs         : Technical directorship


 We gratefully acknowledge several colleagues who have allowed us to
 interface, adapt or use parts of their codes:
   Stefan Grimme, W. Hujo, H. Kruse,             : VdW corrections, initial TS optimization,
                  C. Bannwarth                     DFT functionals, gCP, sTDA/sTD-DF
   Ed Valeev, F. Pavosevic, A. Kumar             : LibInt (2-el integral package), F12 methods
   Garnet Chan, S. Sharma, J. Yang, R. Olivares  : DMRG
   Ulf Ekstrom                                   : XCFun DFT Library
   Mihaly Kallay                                 : mrcc  (arbitrary order and MRCC methods)
   Andreas Klamt, Michael Diedenhofen            : otool_cosmo (COSMO solvation model)
   Jiri Pittner, Ondrej Demel                    : Mk-CCSD
   Frank Weinhold                                : gennbo (NPA and NBO analysis)
   Christopher J. Cramer and Donald G. Truhlar   : smd solvation model
   Lars Goerigk                                  : TD-DFT with DH, B97 family of functionals
   V. Asgeirsson, H. Jonsson                     : NEB implementation
   FAccTs GmbH                                   : IRC, NEB, NEB-TS, Multilevel, MM, QM/MM, CI optimization
   S Lehtola, MJT Oliveira, MAL Marques          : LibXC Library


 Your calculation uses the libint2 library for the computation of 2-el integrals
 For citations please refer to: http://libint.valeyev.net

 Your ORCA version has been built with support for libXC version: 4.2.3
 For citations please refer to: https://tddft.org/programs/libxc/

 This ORCA versions uses:
   CBLAS   interface :  Fast vector & matrix operations
   LAPACKE interface :  Fast linear algebra routines
   SCALAPACK package :  Parallel linear algebra routines


Your calculation utilizes the atom-pairwise dispersion correction
with the zero-damping scheme (D30)
Cite in your paper:
S.Grimme, J.Antony, S.Ehrlich and H.Krieg, J.Chem.Phys., 132, (2010), 154104 
   

XCFun DFT library Copyright 2009-2010 Ulf Ekstrom and contributors.
See http://admol.org/xcfun for more information. This is free soft-
ware; see the source code for copying conditions. There is ABSOLUTELY
NO WARRANTY; not even for MERCHANTABILITY or FITNESS FOR A PARTICULAR
PURPOSE. For details see the documentation. Scientific users of this 
library should cite U. Ekstrom, L. Visscher, R. Bast, A. J. Thorvald-
sen and K. Ruud; J.Chem.Theor.Comp. 2010, DOI: 10.1021/ct100117s
XCFun Version 0.99 
----- Orbital basis set information -----
Your calculation utilizes the basis: def2-SVP
   F. Weigend and R. Ahlrichs, Phys. Chem. Chem. Phys. 7, 3297 (2005).

================================================================================
                                        WARNINGS
                       Please study these warnings very carefully!
================================================================================


INFO   : the flag for use of LIBINT has been found!

================================================================================
                                       INPUT FILE
================================================================================
NAME = config_1159.inp
|  1> ! wB97X-D3 SP def2-SVP
|  2> %pal
|  3> nprocs 24
|  4> end
|  5> 
|  6> * xyz 0 1
|  7> S 	 -38.4568 	 19.6457 	 12.1142 	 
|  8> C 	 -40.0731 	 18.9328 	 12.2881 	 
|  9> C 	 -40.4231 	 18.7774 	 13.5838 	 
| 10> C 	 -39.3545 	 19.0886 	 14.5103 	 
| 11> C 	 -38.2305 	 19.5775 	 13.8256 	 
| 12> H 	 -39.3984 	 18.9481 	 15.5818 	 
| 13> C 	 -41.8002 	 18.2142 	 13.9627 	 
| 14> H 	 -42.1592 	 17.6451 	 13.0786 	 
| 15> H 	 -42.4049 	 19.0475 	 13.9156 	 
| 16> C 	 -41.9789 	 17.4628 	 15.3114 	 
| 17> H 	 -41.1849 	 16.8343 	 15.6139 	 
| 18> H 	 -41.7239 	 18.2669 	 16.0282 	 
| 19> C 	 -43.3863 	 16.9019 	 15.5551 	 
| 20> H 	 -43.4697 	 16.0611 	 14.9205 	 
| 21> H 	 -43.4705 	 16.5913 	 16.5159 	 
| 22> H 	 -44.2203 	 17.5652 	 15.4842 	 
| 23> S 	 -35.4414 	 19.3712 	 13.8747 	 
| 24> C 	 -34.6383 	 20.349 	 15.1098 	 
| 25> C 	 -35.4275 	 21.287 	 15.6458 	 
| 26> C 	 -36.8193 	 21.0248 	 15.3904 	 
| 27> C 	 -36.9993 	 20.0874 	 14.3723 	 
| 28> H 	 -35.0337 	 21.9711 	 16.3256 	 
| 29> C 	 -37.9552 	 21.9046 	 15.8831 	 
| 30> H 	 -38.1621 	 21.7818 	 16.9518 	 
| 31> H 	 -38.8407 	 21.6588 	 15.3505 	 
| 32> C 	 -37.774 	 23.4444 	 15.6748 	 
| 33> H 	 -37.0672 	 23.6911 	 16.4533 	 
| 34> H 	 -38.7372 	 23.9086 	 15.8864 	 
| 35> C 	 -37.1738 	 23.8704 	 14.1739 	 
| 36> H 	 -37.9495 	 23.6462 	 13.3691 	 
| 37> H 	 -36.2429 	 23.3899 	 13.9866 	 
| 38> H 	 -36.9512 	 24.9261 	 14.0169 	 
| 39> H 	 -40.7847 	 18.8304 	 11.47 	 
| 40> H 	 -33.6701 	 20.1658 	 15.5389 	 
| 41> *
| 42> 
| 43>                          ****END OF INPUT****
================================================================================

                       ****************************
                       * Single Point Calculation *
                       ****************************

---------------------------------
CARTESIAN COORDINATES (ANGSTROEM)
---------------------------------
  S    -38.456800   19.645700   12.114200
  C    -40.073100   18.932800   12.288100
  C    -40.423100   18.777400   13.583800
  C    -39.354500   19.088600   14.510300
  C    -38.230500   19.577500   13.825600
  H    -39.398400   18.948100   15.581800
  C    -41.800200   18.214200   13.962700
  H    -42.159200   17.645100   13.078600
  H    -42.404900   19.047500   13.915600
  C    -41.978900   17.462800   15.311400
  H    -41.184900   16.834300   15.613900
  H    -41.723900   18.266900   16.028200
  C    -43.386300   16.901900   15.555100
  H    -43.469700   16.061100   14.920500
  H    -43.470500   16.591300   16.515900
  H    -44.220300   17.565200   15.484200
  S    -35.441400   19.371200   13.874700
  C    -34.638300   20.349000   15.109800
  C    -35.427500   21.287000   15.645800
  C    -36.819300   21.024800   15.390400
  C    -36.999300   20.087400   14.372300
  H    -35.033700   21.971100   16.325600
  C    -37.955200   21.904600   15.883100
  H    -38.162100   21.781800   16.951800
  H    -38.840700   21.658800   15.350500
  C    -37.774000   23.444400   15.674800
  H    -37.067200   23.691100   16.453300
  H    -38.737200   23.908600   15.886400
  C    -37.173800   23.870400   14.173900
  H    -37.949500   23.646200   13.369100
  H    -36.242900   23.389900   13.986600
  H    -36.951200   24.926100   14.016900
  H    -40.784700   18.830400   11.470000
  H    -33.670100   20.165800   15.538900

----------------------------
CARTESIAN COORDINATES (A.U.)
----------------------------
  NO LB      ZA    FRAG     MASS         X           Y           Z
   0 S    16.0000    0    32.060  -72.672820   37.124993   22.892520
   1 C     6.0000    0    12.011  -75.727184   35.777807   23.221144
   2 C     6.0000    0    12.011  -76.388588   35.484144   25.669662
   3 C     6.0000    0    12.011  -74.369227   36.072226   27.420493
   4 C     6.0000    0    12.011  -72.245175   36.996113   26.126598
   5 H     1.0000    0     1.008  -74.452186   35.806720   29.445335
   6 C     6.0000    0    12.011  -78.990930   34.419850   26.385679
   7 H     1.0000    0     1.008  -79.669342   33.344407   24.714972
   8 H     1.0000    0     1.008  -80.133648   35.994559   26.296673
   9 C     6.0000    0    12.011  -79.328624   32.999910   28.934353
  10 H     1.0000    0     1.008  -77.828182   31.812217   29.505995
  11 H     1.0000    0     1.008  -78.846744   34.519438   30.288908
  12 C     6.0000    0    12.011  -81.988225   31.939962   29.394879
  13 H     1.0000    0     1.008  -82.145828   30.351080   28.195659
  14 H     1.0000    0     1.008  -82.147340   31.353013   31.210528
  15 H     1.0000    0     1.008  -83.564257   33.193417   29.260897
  16 S    16.0000    0    32.060  -66.974540   36.606263   26.219383
  17 C     6.0000    0    12.011  -65.456901   38.454037   28.553384
  18 C     6.0000    0    12.011  -66.948273   40.226600   29.566277
  19 C     6.0000    0    12.011  -69.578393   39.731114   29.083641
  20 C     6.0000    0    12.011  -69.918544   37.959685   27.159711
  21 H     1.0000    0     1.008  -66.204098   41.519362   30.850913
  22 C     6.0000    0    12.011  -71.724933   41.393695   30.014709
  23 H     1.0000    0     1.008  -72.115918   41.161637   32.034259
  24 H     1.0000    0     1.008  -73.398286   40.929200   29.008241
  25 C     6.0000    0    12.011  -71.382515   44.303495   29.621079
  26 H     1.0000    0     1.008  -70.046857   44.769691   31.092231
  27 H     1.0000    0     1.008  -73.202699   45.180706   30.020945
  28 C     6.0000    0    12.011  -70.248301   45.108519   26.784789
  29 H     1.0000    0     1.008  -71.714162   44.684842   25.263938
  30 H     1.0000    0     1.008  -68.489155   44.200505   26.430844
  31 H     1.0000    0     1.008  -69.827648   47.103503   26.488102
  32 H     1.0000    0     1.008  -77.071913   35.584299   21.675159
  33 H     1.0000    0     1.008  -63.627268   38.107839   29.364265

--------------------------------
INTERNAL COORDINATES (ANGSTROEM)
--------------------------------
 S      0   0   0     0.000000000000     0.00000000     0.00000000
 C      1   0   0     1.775075578673     0.00000000     0.00000000
 C      2   1   0     1.351106083918   112.08730021     0.00000000
 C      3   2   1     1.448155257560   113.43291620   353.70304568
 C      4   3   2     1.403999038461   110.70570698     4.40982834
 H      4   3   2     1.081563548757   125.16687250   185.59841171
 C      3   2   1     1.535305787132   120.74487638   178.23632584
 H      7   3   2     1.111030431626   106.34050405    22.06607668
 H      7   3   2     1.030664538053   102.61428382   276.60520194
 C      7   3   2     1.554196686395   119.64615116   152.86202758
 H     10   7   3     1.056860681452   116.71215250   321.48233772
 H     10   7   3     1.106979697194   100.61684630    61.74288449
 C     10   7   3     1.534527047660   114.83350088   182.13886125
 H     13  10   7     1.056701168732   105.53641704    74.07724384
 H     13  10   7     1.013261387797   109.80664935   190.95148432
 H     13  10   7     1.067965214789   118.59831910   306.06869306
 S      5   4   3     2.797150212270   139.82018202   220.19041641
 C     17   5   4     1.768200910530   115.11012647   280.72237103
 C     18  17   5     1.337900085956   113.55474144   345.18218090
 C     19  18  17     1.439126554546   111.81718383    17.30757675
 C     20  19  18     1.395581015205   112.12209514   344.08374446
 H     19  18  17     1.041728990669   119.92440942   185.11184324
 C     20  19  18     1.518904256364   124.06608151   179.38879295
 H     23  20  19     1.095448373955   113.12712215   284.44694284
 H     23  20  19     1.062163193676   109.07234251   164.48105427
 C     23  20  19     1.564354937346   116.12469853    46.24446426
 H     26  23  20     1.080041378837   101.80932870   284.05290170
 H     26  23  20     1.089958916657   106.91741256   168.72302621
 C     26  23  20     1.671650935453   114.32922777    43.48801138
 H     29  26  23     1.140034723155   109.84133901    68.20571899
 H     29  26  23     1.064206911272   110.91796618   303.25662837
 H     29  26  23     1.090276226467   116.70220334   185.10689293
 H      2   1   3     1.089104186935   123.99417692   167.67017655
 H     18  17   5     1.074755921128   126.42569568   156.05251578

---------------------------
INTERNAL COORDINATES (A.U.)
---------------------------
 S      0   0   0     0.000000000000     0.00000000     0.00000000
 C      1   0   0     3.354406710703     0.00000000     0.00000000
 C      2   1   0     2.553220476480   112.08730021     0.00000000
 C      3   2   1     2.736616836187   113.43291620   353.70304568
 C      4   3   2     2.653173674980   110.70570698     4.40982834
 H      4   3   2     2.043858903583   125.16687250   185.59841171
 C      3   2   1     2.901307469503   120.74487638   178.23632584
 H      7   3   2     2.099543242226   106.34050405    22.06607668
 H      7   3   2     1.947673712865   102.61428382   276.60520194
 C      7   3   2     2.937006095534   119.64615116   152.86202758
 H     10   7   3     1.997177249654   116.71215250   321.48233772
 H     10   7   3     2.091888463508   100.61684630    61.74288449
 C     10   7   3     2.899835865172   114.83350088   182.13886125
 H     13  10   7     1.996875814298   105.53641704    74.07724384
 H     13  10   7     1.914786525013   109.80664935   190.95148432
 H     13  10   7     2.018161776506   118.59831910   306.06869306
 S      5   4   3     5.285847856629   139.82018202   220.19041641
 C     17   5   4     3.341415470652   115.11012647   280.72237103
 C     18  17   5     2.528264757006   113.55474144   345.18218090
 C     19  18  17     2.719555060146   111.81718383    17.30757675
 C     20  19  18     2.637265916437   112.12209514   344.08374446
 H     19  18  17     1.968582498130   119.92440942   185.11184324
 C     20  19  18     2.870313068175   124.06608151   179.38879295
 H     23  20  19     2.070097420624   113.12712215   284.44694284
 H     23  20  19     2.007197545579   109.07234251   164.48105427
 C     23  20  19     2.956202407832   116.12469853    46.24446426
 H     26  23  20     2.040982419305   101.80932870   284.05290170
 H     26  23  20     2.059723849707   106.91741256   168.72302621
 C     26  23  20     3.158962459519   114.32922777    43.48801138
 H     29  26  23     2.154353409924   109.84133901    68.20571899
 H     29  26  23     2.011059612131   110.91796618   303.25662837
 H     29  26  23     2.060323478348   116.70220334   185.10689293
 H      2   1   3     2.058108644615   123.99417692   167.67017655
 H     18  17   5     2.030994351742   126.42569568   156.05251578

---------------------
BASIS SET INFORMATION
---------------------
There are 3 groups of distinct atoms

 Group   1 Type S   : 10s7p1d contracted to 4s3p1d pattern {5311/511/1}
 Group   2 Type C   : 7s4p1d contracted to 3s2p1d pattern {511/31/1}
 Group   3 Type H   : 4s1p contracted to 2s1p pattern {31/1}

Atom   0S    basis set group =>   1
Atom   1C    basis set group =>   2
Atom   2C    basis set group =>   2
Atom   3C    basis set group =>   2
Atom   4C    basis set group =>   2
Atom   5H    basis set group =>   3
Atom   6C    basis set group =>   2
Atom   7H    basis set group =>   3
Atom   8H    basis set group =>   3
Atom   9C    basis set group =>   2
Atom  10H    basis set group =>   3
Atom  11H    basis set group =>   3
Atom  12C    basis set group =>   2
Atom  13H    basis set group =>   3
Atom  14H    basis set group =>   3
Atom  15H    basis set group =>   3
Atom  16S    basis set group =>   1
Atom  17C    basis set group =>   2
Atom  18C    basis set group =>   2
Atom  19C    basis set group =>   2
Atom  20C    basis set group =>   2
Atom  21H    basis set group =>   3
Atom  22C    basis set group =>   2
Atom  23H    basis set group =>   3
Atom  24H    basis set group =>   3
Atom  25C    basis set group =>   2
Atom  26H    basis set group =>   3
Atom  27H    basis set group =>   3
Atom  28C    basis set group =>   2
Atom  29H    basis set group =>   3
Atom  30H    basis set group =>   3
Atom  31H    basis set group =>   3
Atom  32H    basis set group =>   3
Atom  33H    basis set group =>   3


           ************************************************************
           *        Program running with 24 parallel MPI-processes    *
           *              working on a common directory               *
           ************************************************************
------------------------------------------------------------------------------
                           ORCA GTO INTEGRAL CALCULATION
------------------------------------------------------------------------------

                         BASIS SET STATISTICS AND STARTUP INFO

 # of primitive gaussian shells          ...  294
 # of primitive gaussian functions       ...  534
 # of contracted shells                  ...  154
 # of contracted basis functions         ...  322
 Highest angular momentum                ...    2
 Maximum contraction depth               ...    5
 Integral package used                   ... LIBINT
 Integral threshhold            Thresh   ...  1.000e-10
 Primitive cut-off              TCut     ...  1.000e-11


------------------------------ INTEGRAL EVALUATION ----------------------------


 * One electron integrals 
 Pre-screening matrix                    ... done
 Shell pair data                         ... done (   0.003 sec)



           ************************************************************
           *        Program running with 24 parallel MPI-processes    *
           *              working on a common directory               *
           ************************************************************
-------------------------------------------------------------------------------
                                 ORCA SCF
-------------------------------------------------------------------------------

------------
SCF SETTINGS
------------
Hamiltonian:
 Density Functional     Method          .... DFT(GTOs)
 Exchange Functional    Exchange        .... WB97X-D3
 Correlation Functional Correlation     .... WB97X-D3
 Gradients option       PostSCFGGA      .... off
 Hybrid DFT is turned on
   Fraction HF Exchange ScalHFX         ....  0.195728
   Scaling of DF-GGA-X  ScalDFX         ....  0.000000
   Scaling of DF-GGA-C  ScalDFC         ....  1.000000
   Scaling of DF-LDA-C  ScalLDAC        ....  1.000000
   Perturbative correction              ....  0.000000
   Density functional embedding theory  .... OFF
 Long-range corrected/Screened/Range-Separated Hybrid DFT is turned on
   Amount of maximum screened exact exchange              ....  0.804272
   Range separation parameter mu (erf(mu*r12)/r12)        ....  0.250000


General Settings:
 Integral files         IntName         .... config_1159
 Hartree-Fock type      HFTyp           .... RHF
 Total Charge           Charge          ....    0
 Multiplicity           Mult            ....    1
 Number of Electrons    NEL             ....  134
 Basis Dimension        Dim             ....  322
 Nuclear Repulsion      ENuc            ....   1281.4486225138 Eh

Convergence Acceleration:
 DIIS                   CNVDIIS         .... on
   Start iteration      DIISMaxIt       ....    12
   Startup error        DIISStart       ....  0.200000
   # of expansion vecs  DIISMaxEq       ....     5
   Bias factor          DIISBfac        ....   1.050
   Max. coefficient     DIISMaxC        ....  10.000
 Newton-Raphson         CNVNR           .... off
 SOSCF                  CNVSOSCF        .... on
   Start iteration      SOSCFMaxIt      ....   150
   Startup grad/error   SOSCFStart      ....  0.003300
 Level Shifting         CNVShift        .... on
   Level shift para.    LevelShift      ....    0.2500
   Turn off err/grad.   ShiftErr        ....    0.0010
 Zerner damping         CNVZerner       .... off
 Static damping         CNVDamp         .... on
   Fraction old density DampFac         ....    0.7000
   Max. Damping (<1)    DampMax         ....    0.9800
   Min. Damping (>=0)   DampMin         ....    0.0000
   Turn off err/grad.   DampErr         ....    0.1000
 Fernandez-Rico         CNVRico         .... off

SCF Procedure:
 Maximum # iterations   MaxIter         ....   125
 SCF integral mode      SCFMode         .... Direct
   Integral package                     .... LIBINT
 Reset frequency        DirectResetFreq ....    20
 Integral Threshold     Thresh          ....  1.000e-10 Eh
 Primitive CutOff       TCut            ....  1.000e-11 Eh

Convergence Tolerance:
 Convergence Check Mode ConvCheckMode   .... Total+1el-Energy
 Convergence forced     ConvForced      .... 0
 Energy Change          TolE            ....  1.000e-06 Eh
 1-El. energy change                    ....  1.000e-03 Eh
 Orbital Gradient       TolG            ....  5.000e-05
 Orbital Rotation angle TolX            ....  5.000e-05
 DIIS Error             TolErr          ....  1.000e-06


Diagonalization of the overlap matrix:
Smallest eigenvalue                        ... 6.919e-04
Time for diagonalization                   ...    0.015 sec
Threshold for overlap eigenvalues          ... 1.000e-08
Number of eigenvalues below threshold      ... 0
Time for construction of square roots      ...    0.029 sec
Total time needed                          ...    0.044 sec

-------------------
DFT GRID GENERATION
-------------------

General Integration Accuracy     IntAcc      ...  4.340
Radial Grid Type                 RadialGrid  ... Gauss-Chebyshev
Angular Grid (max. acc.)         AngularGrid ... Lebedev-110
Angular grid pruning method      GridPruning ... 3 (G Style)
Weight generation scheme         WeightScheme... Becke
Basis function cutoff            BFCut       ...    1.0000e-10
Integration weight cutoff        WCut        ...    1.0000e-14
Grids for H and He will be reduced by one unit

# of grid points (after initial pruning)     ...  41088 (   0.0 sec)
# of grid points (after weights+screening)   ...  36982 (   0.0 sec)
nearest neighbour list constructed           ...    0.0 sec
Grid point re-assignment to atoms done       ...    0.0 sec
Grid point division into batches done        ...    0.0 sec
Reduced shell lists constructed in    0.1 sec

Total number of grid points                  ...    36982
Total number of batches                      ...      597
Average number of points per batch           ...       61
Average number of grid points per atom       ...     1088
Average number of shells per batch           ...    75.08 (48.75%)
Average number of basis functions per batch  ...   147.92 (45.94%)
Average number of large shells per batch     ...    48.15 (64.14%)
Average number of large basis fcns per batch ...    98.08 (66.30%)
Maximum spatial batch extension              ...  13.94, 14.80, 14.04 au
Average spatial batch extension              ...   0.15,  0.16,  0.16 au

Time for grid setup =    0.148 sec

------------------------------
INITIAL GUESS: MODEL POTENTIAL
------------------------------
Loading Hartree-Fock densities                     ... done
Calculating cut-offs                               ... done
Setting up the integral package                    ... done
Initializing the effective Hamiltonian             ... done
Starting the Coulomb interaction                   ... done (   0.0 sec)
Reading the grid                                   ... done
Mapping shells                                     ... done
Starting the XC term evaluation                    ... done (   0.0 sec)
  promolecular density results
     # of electrons  =    133.982297848
     EX              =   -126.714478281
     EC              =     -4.614793204
     EX+EC           =   -131.329271485
Transforming the Hamiltonian                       ... done (   0.0 sec)
Diagonalizing the Hamiltonian                      ... done (   0.0 sec)
Back transforming the eigenvectors                 ... done (   0.0 sec)
Now organizing SCF variables                       ... done
                      ------------------
                      INITIAL GUESS DONE (   0.3 sec)
                      ------------------
--------------
SCF ITERATIONS
--------------
ITER       Energy         Delta-E        Max-DP      RMS-DP      [F,P]     Damp
               ***  Starting incremental Fock matrix formation  ***
  0  -1339.3961198792   0.000000000000 0.06808916  0.00160011  0.1677636 0.7000
  1  -1339.5828795806  -0.186759701407 0.04589712  0.00116862  0.1024857 0.7000
                               ***Turning on DIIS***
  2  -1339.6738496648  -0.090970084219 0.08817653  0.00220264  0.0540511 0.0000
  3  -1339.8122220968  -0.138372431933 0.04509177  0.00100912  0.0414463 0.0000
  4  -1339.8413657868  -0.029143690007 0.00771893  0.00019250  0.0082965 0.0000
                      *** Initiating the SOSCF procedure ***
                           *** Shutting down DIIS ***
                      *** Re-Reading the Fockian *** 
                      *** Removing any level shift *** 
ITER      Energy       Delta-E        Grad      Rot      Max-DP    RMS-DP
  5  -1339.84222465  -0.0008588604  0.001476  0.001476  0.003120  0.000098
               *** Restarting incremental Fock matrix formation ***
  6  -1339.84241965  -0.0001949993  0.001429  0.003959  0.002645  0.000066
  7  -1339.84248974  -0.0000700934  0.000741  0.004809  0.003168  0.000067
  8  -1339.84250794  -0.0000182014  0.000503  0.001033  0.000878  0.000022
  9  -1339.84251358  -0.0000056342  0.000146  0.000532  0.000337  0.000009
 10  -1339.84251405  -0.0000004723  0.000100  0.000280  0.000162  0.000004
                 **** Energy Check signals convergence ****
              ***Rediagonalizing the Fockian in SOSCF/NRSCF***

               *****************************************************
               *                     SUCCESS                       *
               *           SCF CONVERGED AFTER  11 CYCLES          *
               *****************************************************

Setting up the final grid:

General Integration Accuracy     IntAcc      ...  4.670
Radial Grid Type                 RadialGrid  ... Gauss-Chebyshev
Angular Grid (max. acc.)         AngularGrid ... Lebedev-302
Angular grid pruning method      GridPruning ... 3 (G Style)
Weight generation scheme         WeightScheme... Becke
Basis function cutoff            BFCut       ...    1.0000e-10
Integration weight cutoff        WCut        ...    1.0000e-14
Grids for H and He will be reduced by one unit

# of grid points (after initial pruning)     ... 161752 (   0.0 sec)
# of grid points (after weights+screening)   ... 142770 (   0.1 sec)
nearest neighbour list constructed           ...    0.0 sec
Grid point re-assignment to atoms done       ...    0.0 sec
Grid point division into batches done        ...    0.5 sec
Reduced shell lists constructed in    0.5 sec

Total number of grid points                  ...   142770
Total number of batches                      ...     2248
Average number of points per batch           ...       63
Average number of grid points per atom       ...     4199
Average number of shells per batch           ...    70.05 (45.49%)
Average number of basis functions per batch  ...   137.76 (42.78%)
Average number of large shells per batch     ...    43.72 (62.40%)
Average number of large basis fcns per batch ...    89.00 (64.61%)
Maximum spatial batch extension              ...  12.85, 15.22, 15.11 au
Average spatial batch extension              ...   0.09,  0.10,  0.10 au

Final grid set up in    0.8 sec
Final integration                            ... done (   0.2 sec)
Change in XC energy                          ...     0.006736236
Integrated number of electrons               ...   133.999986266
Previous integrated no of electrons          ...   133.992390764

----------------
TOTAL SCF ENERGY
----------------

Total Energy       :        -1339.83577811 Eh          -36458.78505 eV

Components:
Nuclear Repulsion  :         1281.44862251 Eh           34869.98977 eV
Electronic Energy  :        -2621.28440062 Eh          -71328.77483 eV
One Electron Energy:        -4379.61048363 Eh         -119175.26001 eV
Two Electron Energy:         1758.32608300 Eh           47846.48519 eV

Virial components:
Potential Energy   :        -2671.48730559 Eh          -72694.86532 eV
Kinetic Energy     :         1331.65152748 Eh           36236.08027 eV
Virial Ratio       :            2.00614594


DFT components:
N(Alpha)           :       66.999993133015 electrons
N(Beta)            :       66.999993133015 electrons
N(Total)           :      133.999986266029 electrons
E(XC)              :      -94.279111587600 Eh       
DFET-embed. en.    :        0.000000000000 Eh       

---------------
SCF CONVERGENCE
---------------

  Last Energy change         ...   -2.9912e-07  Tolerance :   1.0000e-06
  Last MAX-Density change    ...    3.6284e-05  Tolerance :   1.0000e-05
  Last RMS-Density change    ...    7.2635e-07  Tolerance :   1.0000e-06
  Last Orbital Gradient      ...    6.5804e-06  Tolerance :   5.0000e-05
  Last Orbital Rotation      ...    1.8003e-05  Tolerance :   5.0000e-05

             **** THE GBW FILE WAS UPDATED (config_1159.gbw) ****
             **** DENSITY FILE WAS UPDATED (config_1159.scfp) ****
             **** ENERGY FILE WAS UPDATED (config_1159.en.tmp) ****
             **** THE GBW FILE WAS UPDATED (config_1159.gbw) ****
             **** DENSITY FILE WAS UPDATED (config_1159.scfp) ****
----------------
ORBITAL ENERGIES
----------------

  NO   OCC          E(Eh)            E(eV) 
   0   2.0000     -88.964615     -2420.8503 
   1   2.0000     -88.964188     -2420.8386 
   2   2.0000     -10.328607      -281.0557 
   3   2.0000     -10.325903      -280.9821 
   4   2.0000     -10.314365      -280.6681 
   5   2.0000     -10.307123      -280.4711 
   6   2.0000     -10.304709      -280.4054 
   7   2.0000     -10.299478      -280.2630 
   8   2.0000     -10.297158      -280.1999 
   9   2.0000     -10.294585      -280.1299 
  10   2.0000     -10.289501      -279.9916 
  11   2.0000     -10.288959      -279.9768 
  12   2.0000     -10.287694      -279.9424 
  13   2.0000     -10.286450      -279.9085 
  14   2.0000     -10.282542      -279.8022 
  15   2.0000     -10.269578      -279.4494 
  16   2.0000      -8.079067      -219.8426 
  17   2.0000      -8.078819      -219.8358 
  18   2.0000      -6.037554      -164.2902 
  19   2.0000      -6.037437      -164.2870 
  20   2.0000      -6.033625      -164.1833 
  21   2.0000      -6.033568      -164.1817 
  22   2.0000      -6.029779      -164.0786 
  23   2.0000      -6.029312      -164.0659 
  24   2.0000      -1.004975       -27.3468 
  25   2.0000      -0.981798       -26.7161 
  26   2.0000      -0.910697       -24.7813 
  27   2.0000      -0.896596       -24.3976 
  28   2.0000      -0.874939       -23.8083 
  29   2.0000      -0.846941       -23.0464 
  30   2.0000      -0.834327       -22.7032 
  31   2.0000      -0.814331       -22.1591 
  32   2.0000      -0.787862       -21.4388 
  33   2.0000      -0.773987       -21.0613 
  34   2.0000      -0.722999       -19.6738 
  35   2.0000      -0.699574       -19.0364 
  36   2.0000      -0.692844       -18.8533 
  37   2.0000      -0.656342       -17.8600 
  38   2.0000      -0.637889       -17.3579 
  39   2.0000      -0.618754       -16.8372 
  40   2.0000      -0.593538       -16.1510 
  41   2.0000      -0.568875       -15.4799 
  42   2.0000      -0.562716       -15.3123 
  43   2.0000      -0.552025       -15.0214 
  44   2.0000      -0.534964       -14.5571 
  45   2.0000      -0.524908       -14.2835 
  46   2.0000      -0.515232       -14.0202 
  47   2.0000      -0.508515       -13.8374 
  48   2.0000      -0.505174       -13.7465 
  49   2.0000      -0.495185       -13.4747 
  50   2.0000      -0.483423       -13.1546 
  51   2.0000      -0.478139       -13.0108 
  52   2.0000      -0.471496       -12.8301 
  53   2.0000      -0.468259       -12.7420 
  54   2.0000      -0.461523       -12.5587 
  55   2.0000      -0.451929       -12.2976 
  56   2.0000      -0.447702       -12.1826 
  57   2.0000      -0.443219       -12.0606 
  58   2.0000      -0.431080       -11.7303 
  59   2.0000      -0.422769       -11.5041 
  60   2.0000      -0.419977       -11.4282 
  61   2.0000      -0.409823       -11.1519 
  62   2.0000      -0.408323       -11.1110 
  63   2.0000      -0.346510        -9.4290 
  64   2.0000      -0.331915        -9.0319 
  65   2.0000      -0.327806        -8.9200 
  66   2.0000      -0.289370        -7.8742 
  67   0.0000       0.033381         0.9083 
  68   0.0000       0.064587         1.7575 
  69   0.0000       0.109723         2.9857 
  70   0.0000       0.127505         3.4696 
  71   0.0000       0.132684         3.6105 
  72   0.0000       0.138065         3.7570 
  73   0.0000       0.146248         3.9796 
  74   0.0000       0.151622         4.1259 
  75   0.0000       0.167667         4.5624 
  76   0.0000       0.170317         4.6346 
  77   0.0000       0.178169         4.8482 
  78   0.0000       0.191089         5.1998 
  79   0.0000       0.195475         5.3191 
  80   0.0000       0.201611         5.4861 
  81   0.0000       0.205080         5.5805 
  82   0.0000       0.216548         5.8926 
  83   0.0000       0.221852         6.0369 
  84   0.0000       0.230784         6.2799 
  85   0.0000       0.233912         6.3651 
  86   0.0000       0.246515         6.7080 
  87   0.0000       0.248559         6.7636 
  88   0.0000       0.248876         6.7723 
  89   0.0000       0.252180         6.8622 
  90   0.0000       0.252808         6.8793 
  91   0.0000       0.262606         7.1459 
  92   0.0000       0.268435         7.3045 
  93   0.0000       0.278771         7.5858 
  94   0.0000       0.304890         8.2965 
  95   0.0000       0.311415         8.4740 
  96   0.0000       0.320121         8.7109 
  97   0.0000       0.328525         8.9396 
  98   0.0000       0.344600         9.3770 
  99   0.0000       0.368276        10.0213 
 100   0.0000       0.373083        10.1521 
 101   0.0000       0.392448        10.6790 
 102   0.0000       0.405392        11.0313 
 103   0.0000       0.426976        11.6186 
 104   0.0000       0.438191        11.9238 
 105   0.0000       0.454375        12.3642 
 106   0.0000       0.469173        12.7668 
 107   0.0000       0.479940        13.0598 
 108   0.0000       0.488194        13.2844 
 109   0.0000       0.493548        13.4301 
 110   0.0000       0.505307        13.7501 
 111   0.0000       0.511626        13.9220 
 112   0.0000       0.516255        14.0480 
 113   0.0000       0.524224        14.2649 
 114   0.0000       0.537577        14.6282 
 115   0.0000       0.541787        14.7428 
 116   0.0000       0.551165        14.9980 
 117   0.0000       0.558952        15.2099 
 118   0.0000       0.569288        15.4911 
 119   0.0000       0.579151        15.7595 
 120   0.0000       0.592168        16.1137 
 121   0.0000       0.601830        16.3766 
 122   0.0000       0.605505        16.4766 
 123   0.0000       0.614253        16.7147 
 124   0.0000       0.617944        16.8151 
 125   0.0000       0.623935        16.9781 
 126   0.0000       0.632261        17.2047 
 127   0.0000       0.647506        17.6195 
 128   0.0000       0.654252        17.8031 
 129   0.0000       0.658955        17.9311 
 130   0.0000       0.669818        18.2267 
 131   0.0000       0.680338        18.5129 
 132   0.0000       0.688663        18.7395 
 133   0.0000       0.693832        18.8801 
 134   0.0000       0.707139        19.2422 
 135   0.0000       0.714994        19.4560 
 136   0.0000       0.724508        19.7149 
 137   0.0000       0.725217        19.7342 
 138   0.0000       0.730354        19.8740 
 139   0.0000       0.741129        20.1671 
 140   0.0000       0.746766        20.3205 
 141   0.0000       0.755674        20.5629 
 142   0.0000       0.756984        20.5986 
 143   0.0000       0.764019        20.7900 
 144   0.0000       0.770524        20.9670 
 145   0.0000       0.773945        21.0601 
 146   0.0000       0.775416        21.1001 
 147   0.0000       0.777180        21.1482 
 148   0.0000       0.780930        21.2502 
 149   0.0000       0.786573        21.4037 
 150   0.0000       0.788045        21.4438 
 151   0.0000       0.797764        21.7083 
 152   0.0000       0.798227        21.7208 
 153   0.0000       0.803869        21.8744 
 154   0.0000       0.808676        22.0052 
 155   0.0000       0.810096        22.0438 
 156   0.0000       0.814734        22.1700 
 157   0.0000       0.819454        22.2985 
 158   0.0000       0.821479        22.3536 
 159   0.0000       0.831113        22.6157 
 160   0.0000       0.835008        22.7217 
 161   0.0000       0.841370        22.8948 
 162   0.0000       0.849089        23.1049 
 163   0.0000       0.853896        23.2357 
 164   0.0000       0.858394        23.3581 
 165   0.0000       0.861728        23.4488 
 166   0.0000       0.870614        23.6906 
 167   0.0000       0.876718        23.8567 
 168   0.0000       0.888473        24.1766 
 169   0.0000       0.895054        24.3557 
 170   0.0000       0.902426        24.5563 
 171   0.0000       0.917558        24.9680 
 172   0.0000       0.925932        25.1959 
 173   0.0000       0.948670        25.8146 
 174   0.0000       0.962330        26.1863 
 175   0.0000       0.966516        26.3002 
 176   0.0000       0.969606        26.3843 
 177   0.0000       1.003373        27.3032 
 178   0.0000       1.023960        27.8634 
 179   0.0000       1.039934        28.2980 
 180   0.0000       1.046676        28.4815 
 181   0.0000       1.059429        28.8285 
 182   0.0000       1.081678        29.4340 
 183   0.0000       1.111276        30.2394 
 184   0.0000       1.115932        30.3660 
 185   0.0000       1.137909        30.9641 
 186   0.0000       1.145325        31.1659 
 187   0.0000       1.156197        31.4617 
 188   0.0000       1.163576        31.6625 
 189   0.0000       1.193088        32.4656 
 190   0.0000       1.204392        32.7732 
 191   0.0000       1.223295        33.2876 
 192   0.0000       1.236220        33.6393 
 193   0.0000       1.248088        33.9622 
 194   0.0000       1.269805        34.5531 
 195   0.0000       1.280384        34.8410 
 196   0.0000       1.307630        35.5824 
 197   0.0000       1.325379        36.0654 
 198   0.0000       1.342440        36.5296 
 199   0.0000       1.359596        36.9965 
 200   0.0000       1.393066        37.9072 
 201   0.0000       1.410722        38.3877 
 202   0.0000       1.418703        38.6049 
 203   0.0000       1.432643        38.9842 
 204   0.0000       1.457178        39.6518 
 205   0.0000       1.468198        39.9517 
 206   0.0000       1.518506        41.3207 
 207   0.0000       1.525836        41.5201 
 208   0.0000       1.540561        41.9208 
 209   0.0000       1.543753        42.0077 
 210   0.0000       1.582534        43.0629 
 211   0.0000       1.590337        43.2753 
 212   0.0000       1.609056        43.7846 
 213   0.0000       1.634815        44.4856 
 214   0.0000       1.656973        45.0885 
 215   0.0000       1.667235        45.3678 
 216   0.0000       1.669105        45.4186 
 217   0.0000       1.687321        45.9143 
 218   0.0000       1.724848        46.9355 
 219   0.0000       1.746106        47.5140 
 220   0.0000       1.769218        48.1429 
 221   0.0000       1.780540        48.4510 
 222   0.0000       1.804514        49.1033 
 223   0.0000       1.818687        49.4890 
 224   0.0000       1.828693        49.7613 
 225   0.0000       1.838182        50.0195 
 226   0.0000       1.838794        50.0361 
 227   0.0000       1.861570        50.6559 
 228   0.0000       1.865358        50.7590 
 229   0.0000       1.873015        50.9673 
 230   0.0000       1.883707        51.2583 
 231   0.0000       1.896115        51.5959 
 232   0.0000       1.902653        51.7738 
 233   0.0000       1.908798        51.9410 
 234   0.0000       1.912172        52.0328 
 235   0.0000       1.916306        52.1453 
 236   0.0000       1.922097        52.3029 
 237   0.0000       1.924936        52.3802 
 238   0.0000       1.936349        52.6907 
 239   0.0000       1.952495        53.1301 
 240   0.0000       1.956455        53.2378 
 241   0.0000       1.963345        53.4253 
 242   0.0000       1.971875        53.6575 
 243   0.0000       1.975931        53.7678 
 244   0.0000       1.992309        54.2135 
 245   0.0000       2.012782        54.7706 
 246   0.0000       2.014613        54.8204 
 247   0.0000       2.029490        55.2252 
 248   0.0000       2.039317        55.4926 
 249   0.0000       2.047745        55.7220 
 250   0.0000       2.051690        55.8293 
 251   0.0000       2.056852        55.9698 
 252   0.0000       2.063028        56.1378 
 253   0.0000       2.078890        56.5695 
 254   0.0000       2.098852        57.1127 
 255   0.0000       2.112934        57.4959 
 256   0.0000       2.126701        57.8705 
 257   0.0000       2.136505        58.1373 
 258   0.0000       2.156557        58.6829 
 259   0.0000       2.161847        58.8268 
 260   0.0000       2.170073        59.0507 
 261   0.0000       2.201972        59.9187 
 262   0.0000       2.221245        60.4431 
 263   0.0000       2.229769        60.6751 
 264   0.0000       2.242717        61.0274 
 265   0.0000       2.251632        61.2700 
 266   0.0000       2.273907        61.8762 
 267   0.0000       2.291783        62.3626 
 268   0.0000       2.297459        62.5170 
 269   0.0000       2.309711        62.8504 
 270   0.0000       2.345109        63.8137 
 271   0.0000       2.369905        64.4884 
 272   0.0000       2.376439        64.6662 
 273   0.0000       2.405127        65.4468 
 274   0.0000       2.418024        65.7978 
 275   0.0000       2.432879        66.2020 
 276   0.0000       2.434083        66.2348 
 277   0.0000       2.458850        66.9087 
 278   0.0000       2.465551        67.0910 
 279   0.0000       2.495787        67.9138 
 280   0.0000       2.503031        68.1109 
 281   0.0000       2.518204        68.5238 
 282   0.0000       2.520441        68.5847 
 283   0.0000       2.544532        69.2402 
 284   0.0000       2.566738        69.8445 
 285   0.0000       2.574885        70.0662 
 286   0.0000       2.590220        70.4835 
 287   0.0000       2.596442        70.6528 
 288   0.0000       2.600559        70.7648 
 289   0.0000       2.641824        71.8877 
 290   0.0000       2.672746        72.7291 
 291   0.0000       2.675891        72.8147 
 292   0.0000       2.691983        73.2526 
 293   0.0000       2.699178        73.4484 
 294   0.0000       2.716092        73.9086 
 295   0.0000       2.727873        74.2292 
 296   0.0000       2.759357        75.0859 
 297   0.0000       2.777594        75.5822 
 298   0.0000       2.800320        76.2006 
 299   0.0000       2.817150        76.6585 
 300   0.0000       2.861054        77.8532 
 301   0.0000       2.884141        78.4815 
 302   0.0000       2.923407        79.5500 
 303   0.0000       2.947957        80.2180 
 304   0.0000       2.955075        80.4117 
 305   0.0000       2.984526        81.2131 
 306   0.0000       2.992059        81.4181 
 307   0.0000       3.025063        82.3162 
 308   0.0000       3.039806        82.7173 
 309   0.0000       3.052205        83.0547 
 310   0.0000       3.081261        83.8454 
 311   0.0000       3.092750        84.1580 
 312   0.0000       3.107571        84.5613 
 313   0.0000       3.140906        85.4684 
 314   0.0000       3.149844        85.7116 
 315   0.0000       3.176553        86.4384 
 316   0.0000       3.208607        87.3106 
 317   0.0000       3.228766        87.8592 
 318   0.0000       3.246747        88.3485 
 319   0.0000       3.279054        89.2276 
 320   0.0000       3.391190        92.2790 
 321   0.0000       3.463069        94.2349 

                    ********************************
                    * MULLIKEN POPULATION ANALYSIS *
                    ********************************

-----------------------
MULLIKEN ATOMIC CHARGES
-----------------------
   0 S :    0.106480
   1 C :   -0.133226
   2 C :   -0.095162
   3 C :    0.026770
   4 C :   -0.156806
   5 H :    0.014848
   6 C :    0.095308
   7 H :    0.019525
   8 H :    0.016030
   9 C :   -0.100239
  10 H :    0.024176
  11 H :    0.017137
  12 C :    0.041339
  13 H :    0.029671
  14 H :    0.001793
  15 H :    0.023145
  16 S :    0.104699
  17 C :   -0.085850
  18 C :    0.003458
  19 C :   -0.040909
  20 C :   -0.152442
  21 H :    0.000060
  22 C :    0.066733
  23 H :    0.031826
  24 H :    0.024358
  25 C :   -0.095901
  26 H :    0.028888
  27 H :    0.040095
  28 C :   -0.074507
  29 H :    0.046487
  30 H :    0.040697
  31 H :    0.032788
  32 H :    0.045645
  33 H :    0.053090
Sum of atomic charges:   -0.0000000

--------------------------------
MULLIKEN REDUCED ORBITAL CHARGES
--------------------------------
  0 S s       :     5.848738  s :     5.848738
      pz      :     3.149681  p :     9.939113
      px      :     3.196401
      py      :     3.593031
      dz2     :     0.038175  d :     0.105669
      dxz     :     0.014745
      dyz     :     0.015396
      dx2y2   :     0.017257
      dxy     :     0.020096
  1 C s       :     3.184559  s :     3.184559
      pz      :     0.975624  p :     2.914248
      px      :     0.855032
      py      :     1.083592
      dz2     :     0.009055  d :     0.034418
      dxz     :     0.009809
      dyz     :     0.005650
      dx2y2   :     0.004793
      dxy     :     0.005111
  2 C s       :     3.070035  s :     3.070035
      pz      :     0.968872  p :     2.980527
      px      :     1.017731
      py      :     0.993924
      dz2     :     0.009920  d :     0.044600
      dxz     :     0.012719
      dyz     :     0.009061
      dx2y2   :     0.006105
      dxy     :     0.006794
  3 C s       :     3.204256  s :     3.204256
      pz      :     0.809367  p :     2.736777
      px      :     0.915883
      py      :     1.011526
      dz2     :     0.007947  d :     0.032198
      dxz     :     0.009519
      dyz     :     0.003940
      dx2y2   :     0.005335
      dxy     :     0.005456
  4 C s       :     3.074088  s :     3.074088
      pz      :     0.928475  p :     3.036782
      px      :     1.032518
      py      :     1.075789
      dz2     :     0.013664  d :     0.045937
      dxz     :     0.010394
      dyz     :     0.007168
      dx2y2   :     0.006757
      dxy     :     0.007954
  5 H s       :     0.961149  s :     0.961149
      pz      :     0.015265  p :     0.024002
      px      :     0.003339
      py      :     0.005399
  6 C s       :     2.928946  s :     2.928946
      pz      :     0.969269  p :     2.939850
      px      :     0.970712
      py      :     0.999870
      dz2     :     0.009172  d :     0.035897
      dxz     :     0.005219
      dyz     :     0.007099
      dx2y2   :     0.004498
      dxy     :     0.009909
  7 H s       :     0.958351  s :     0.958351
      pz      :     0.009515  p :     0.022124
      px      :     0.005066
      py      :     0.007543
  8 H s       :     0.957170  s :     0.957170
      pz      :     0.005322  p :     0.026799
      px      :     0.009249
      py      :     0.012228
  9 C s       :     3.058327  s :     3.058327
      pz      :     0.987755  p :     3.005615
      px      :     0.998963
      py      :     1.018896
      dz2     :     0.006247  d :     0.036297
      dxz     :     0.005674
      dyz     :     0.010165
      dx2y2   :     0.005450
      dxy     :     0.008761
 10 H s       :     0.951102  s :     0.951102
      pz      :     0.005589  p :     0.024722
      px      :     0.009631
      py      :     0.009502
 11 H s       :     0.959754  s :     0.959754
      pz      :     0.008295  p :     0.023108
      px      :     0.004599
      py      :     0.010214
 12 C s       :     2.924198  s :     2.924198
      pz      :     1.026044  p :     3.004787
      px      :     0.957269
      py      :     1.021474
      dz2     :     0.007902  d :     0.029677
      dxz     :     0.002304
      dyz     :     0.006463
      dx2y2   :     0.005670
      dxy     :     0.007339
 13 H s       :     0.944212  s :     0.944212
      pz      :     0.009678  p :     0.026117
      px      :     0.005022
      py      :     0.011417
 14 H s       :     0.969863  s :     0.969863
      pz      :     0.014944  p :     0.028344
      px      :     0.005953
      py      :     0.007447
 15 H s       :     0.951372  s :     0.951372
      pz      :     0.006240  p :     0.025483
      px      :     0.010334
      py      :     0.008909
 16 S s       :     5.851114  s :     5.851114
      pz      :     3.425883  p :     9.945601
      px      :     2.991177
      py      :     3.528540
      dz2     :     0.016119  d :     0.098587
      dxz     :     0.024543
      dyz     :     0.015260
      dx2y2   :     0.014346
      dxy     :     0.028319
 17 C s       :     3.138046  s :     3.138046
      pz      :     0.964711  p :     2.910796
      px      :     0.964201
      py      :     0.981884
      dz2     :     0.007358  d :     0.037007
      dxz     :     0.007383
      dyz     :     0.006595
      dx2y2   :     0.008433
      dxy     :     0.007239
 18 C s       :     3.148894  s :     3.148894
      pz      :     0.960750  p :     2.810731
      px      :     0.945444
      py      :     0.904537
      dz2     :     0.004183  d :     0.036917
      dxz     :     0.008510
      dyz     :     0.004811
      dx2y2   :     0.009603
      dxy     :     0.009809
 19 C s       :     3.083972  s :     3.083972
      pz      :     0.971414  p :     2.914110
      px      :     0.945518
      py      :     0.997178
      dz2     :     0.009047  d :     0.042828
      dxz     :     0.007721
      dyz     :     0.005676
      dx2y2   :     0.010917
      dxy     :     0.009467
 20 C s       :     3.065058  s :     3.065058
      pz      :     1.039815  p :     3.044141
      px      :     0.930591
      py      :     1.073735
      dz2     :     0.008005  d :     0.043243
      dxz     :     0.009198
      dyz     :     0.004979
      dx2y2   :     0.009787
      dxy     :     0.011274
 21 H s       :     0.974248  s :     0.974248
      pz      :     0.010184  p :     0.025692
      px      :     0.005431
      py      :     0.010077
 22 C s       :     2.947985  s :     2.947985
      pz      :     0.990660  p :     2.950210
      px      :     1.000358
      py      :     0.959192
      dz2     :     0.008582  d :     0.035073
      dxz     :     0.006139
      dyz     :     0.004430
      dx2y2   :     0.007748
      dxy     :     0.008174
 23 H s       :     0.945484  s :     0.945484
      pz      :     0.013817  p :     0.022691
      px      :     0.004629
      py      :     0.004244
 24 H s       :     0.950779  s :     0.950779
      pz      :     0.007929  p :     0.024863
      px      :     0.011733
      py      :     0.005201
 25 C s       :     3.092109  s :     3.092109
      pz      :     0.990184  p :     2.971116
      px      :     1.009043
      py      :     0.971890
      dz2     :     0.006536  d :     0.032675
      dxz     :     0.007754
      dyz     :     0.005570
      dx2y2   :     0.006989
      dxy     :     0.005825
 26 H s       :     0.948107  s :     0.948107
      pz      :     0.008544  p :     0.023006
      px      :     0.008848
      py      :     0.005613
 27 H s       :     0.937768  s :     0.937768
      pz      :     0.004037  p :     0.022137
      px      :     0.012147
      py      :     0.005954
 28 C s       :     3.057570  s :     3.057570
      pz      :     0.959137  p :     2.992622
      px      :     1.012138
      py      :     1.021346
      dz2     :     0.005773  d :     0.024315
      dxz     :     0.006153
      dyz     :     0.002377
      dx2y2   :     0.006045
      dxy     :     0.003968
 29 H s       :     0.932130  s :     0.932130
      pz      :     0.007857  p :     0.021383
      px      :     0.008490
      py      :     0.005036
 30 H s       :     0.934184  s :     0.934184
      pz      :     0.004476  p :     0.025119
      px      :     0.012394
      py      :     0.008249
 31 H s       :     0.943234  s :     0.943234
      pz      :     0.004278  p :     0.023979
      px      :     0.005819
      py      :     0.013881
 32 H s       :     0.930477  s :     0.930477
      pz      :     0.010322  p :     0.023879
      px      :     0.008320
      py      :     0.005237
 33 H s       :     0.922298  s :     0.922298
      pz      :     0.006366  p :     0.024612
      px      :     0.014002
      py      :     0.004243


                     *******************************
                     * LOEWDIN POPULATION ANALYSIS *
                     *******************************

----------------------
LOEWDIN ATOMIC CHARGES
----------------------
   0 S :    0.403645
   1 C :   -0.199616
   2 C :   -0.056382
   3 C :   -0.067331
   4 C :   -0.191582
   5 H :    0.030716
   6 C :   -0.027616
   7 H :    0.030450
   8 H :    0.023980
   9 C :   -0.042188
  10 H :    0.021513
  11 H :    0.024808
  12 C :   -0.047497
  13 H :    0.025481
  14 H :    0.016880
  15 H :    0.026906
  16 S :    0.375761
  17 C :   -0.165996
  18 C :   -0.064891
  19 C :   -0.046477
  20 C :   -0.193310
  21 H :    0.023186
  22 C :   -0.032473
  23 H :    0.031880
  24 H :    0.023128
  25 C :   -0.030685
  26 H :    0.015946
  27 H :    0.025926
  28 C :   -0.073067
  29 H :    0.034533
  30 H :    0.021144
  31 H :    0.024231
  32 H :    0.028283
  33 H :    0.030715

-------------------------------
LOEWDIN REDUCED ORBITAL CHARGES
-------------------------------
  0 S s       :     5.509209  s :     5.509209
      pz      :     3.196405  p :     9.956466
      px      :     3.199296
      py      :     3.560765
      dz2     :     0.050012  d :     0.130680
      dxz     :     0.017541
      dyz     :     0.017485
      dx2y2   :     0.020944
      dxy     :     0.024696
  1 C s       :     2.926833  s :     2.926833
      pz      :     1.087476  p :     3.190160
      px      :     0.999915
      py      :     1.102769
      dz2     :     0.025022  d :     0.082623
      dxz     :     0.026133
      dyz     :     0.011044
      dx2y2   :     0.009843
      dxy     :     0.010582
  2 C s       :     2.862293  s :     2.862293
      pz      :     1.081997  p :     3.084876
      px      :     1.027091
      py      :     0.975788
      dz2     :     0.028088  d :     0.109213
      dxz     :     0.035586
      dyz     :     0.019722
      dx2y2   :     0.012414
      dxy     :     0.013403
  3 C s       :     2.871751  s :     2.871751
      pz      :     1.045084  p :     3.110720
      px      :     1.028967
      py      :     1.036669
      dz2     :     0.021476  d :     0.084859
      dxz     :     0.028979
      dyz     :     0.008564
      dx2y2   :     0.012982
      dxy     :     0.012859
  4 C s       :     2.905321  s :     2.905321
      pz      :     1.028095  p :     3.176227
      px      :     1.082801
      py      :     1.065331
      dz2     :     0.033146  d :     0.110034
      dxz     :     0.027757
      dyz     :     0.015223
      dx2y2   :     0.016071
      dxy     :     0.017837
  5 H s       :     0.897765  s :     0.897765
      pz      :     0.043631  p :     0.071519
      px      :     0.011608
      py      :     0.016280
  6 C s       :     2.820579  s :     2.820579
      pz      :     1.027805  p :     3.118713
      px      :     1.024871
      py      :     1.066036
      dz2     :     0.021762  d :     0.088324
      dxz     :     0.012116
      dyz     :     0.019273
      dx2y2   :     0.011322
      dxy     :     0.023851
  7 H s       :     0.905896  s :     0.905896
      pz      :     0.029101  p :     0.063654
      px      :     0.015363
      py      :     0.019190
  8 H s       :     0.894500  s :     0.894500
      pz      :     0.017776  p :     0.081520
      px      :     0.028212
      py      :     0.035531
  9 C s       :     2.828180  s :     2.828180
      pz      :     1.025803  p :     3.126787
      px      :     1.034028
      py      :     1.066956
      dz2     :     0.015946  d :     0.087221
      dxz     :     0.012022
      dyz     :     0.024592
      dx2y2   :     0.013027
      dxy     :     0.021634
 10 H s       :     0.902613  s :     0.902613
      pz      :     0.018890  p :     0.075874
      px      :     0.030436
      py      :     0.026548
 11 H s       :     0.908728  s :     0.908728
      pz      :     0.024429  p :     0.066463
      px      :     0.014580
      py      :     0.027453
 12 C s       :     2.795116  s :     2.795116
      pz      :     1.086190  p :     3.175372
      px      :     1.019904
      py      :     1.069278
      dz2     :     0.021046  d :     0.077009
      dxz     :     0.005209
      dyz     :     0.016845
      dx2y2   :     0.014212
      dxy     :     0.019697
 13 H s       :     0.902216  s :     0.902216
      pz      :     0.024849  p :     0.072303
      px      :     0.015146
      py      :     0.032308
 14 H s       :     0.901513  s :     0.901513
      pz      :     0.040938  p :     0.081607
      px      :     0.018987
      py      :     0.021683
 15 H s       :     0.902922  s :     0.902922
      pz      :     0.015758  p :     0.070172
      px      :     0.029949
      py      :     0.024465
 16 S s       :     5.532109  s :     5.532109
      pz      :     3.435647  p :     9.971127
      px      :     3.011046
      py      :     3.524434
      dz2     :     0.018583  d :     0.121003
      dxz     :     0.030668
      dyz     :     0.017539
      dx2y2   :     0.018332
      dxy     :     0.035881
 17 C s       :     2.920753  s :     2.920753
      pz      :     1.032832  p :     3.158293
      px      :     1.070706
      py      :     1.054755
      dz2     :     0.016223  d :     0.086951
      dxz     :     0.016583
      dyz     :     0.015641
      dx2y2   :     0.019534
      dxy     :     0.018970
 18 C s       :     2.851001  s :     2.851001
      pz      :     1.028026  p :     3.116901
      px      :     1.045959
      py      :     1.042916
      dz2     :     0.010067  d :     0.096988
      dxz     :     0.020864
      dyz     :     0.013506
      dx2y2   :     0.025982
      dxy     :     0.026569
 19 C s       :     2.865644  s :     2.865644
      pz      :     1.020373  p :     3.074225
      px      :     1.039325
      py      :     1.014526
      dz2     :     0.019980  d :     0.106609
      dxz     :     0.018409
      dyz     :     0.015955
      dx2y2   :     0.027987
      dxy     :     0.024278
 20 C s       :     2.908949  s :     2.908949
      pz      :     1.079656  p :     3.179933
      px      :     1.006511
      py      :     1.093766
      dz2     :     0.018272  d :     0.104428
      dxz     :     0.023425
      dyz     :     0.013426
      dx2y2   :     0.022845
      dxy     :     0.026461
 21 H s       :     0.899241  s :     0.899241
      pz      :     0.030388  p :     0.077574
      px      :     0.018851
      py      :     0.028335
 22 C s       :     2.824236  s :     2.824236
      pz      :     1.057056  p :     3.120670
      px      :     1.047490
      py      :     1.016125
      dz2     :     0.022429  d :     0.087566
      dxz     :     0.015851
      dyz     :     0.009470
      dx2y2   :     0.020421
      dxy     :     0.019395
 23 H s       :     0.901555  s :     0.901555
      pz      :     0.038550  p :     0.066565
      px      :     0.014079
      py      :     0.013935
 24 H s       :     0.901963  s :     0.901963
      pz      :     0.022331  p :     0.074909
      px      :     0.034834
      py      :     0.017744
 25 C s       :     2.859453  s :     2.859453
      pz      :     1.019315  p :     3.095241
      px      :     1.061378
      py      :     1.014548
      dz2     :     0.015727  d :     0.075990
      dxz     :     0.018182
      dyz     :     0.010815
      dx2y2   :     0.017982
      dxy     :     0.013285
 26 H s       :     0.913530  s :     0.913530
      pz      :     0.027879  p :     0.070524
      px      :     0.025175
      py      :     0.017469
 27 H s       :     0.906782  s :     0.906782
      pz      :     0.013594  p :     0.067292
      px      :     0.034832
      py      :     0.018867
 28 C s       :     2.860302  s :     2.860302
      pz      :     1.009005  p :     3.153132
      px      :     1.063200
      py      :     1.080927
      dz2     :     0.013983  d :     0.059633
      dxz     :     0.015189
      dyz     :     0.005381
      dx2y2   :     0.015063
      dxy     :     0.010016
 29 H s       :     0.906543  s :     0.906543
      pz      :     0.024245  p :     0.058924
      px      :     0.022534
      py      :     0.012145
 30 H s       :     0.905519  s :     0.905519
      pz      :     0.015096  p :     0.073337
      px      :     0.036560
      py      :     0.021680
 31 H s       :     0.908088  s :     0.908088
      pz      :     0.013695  p :     0.067681
      px      :     0.015026
      py      :     0.038960
 32 H s       :     0.898086  s :     0.898086
      pz      :     0.028768  p :     0.073631
      px      :     0.027580
      py      :     0.017283
 33 H s       :     0.893113  s :     0.893113
      pz      :     0.021349  p :     0.076172
      px      :     0.040873
      py      :     0.013951


                      *****************************
                      * MAYER POPULATION ANALYSIS *
                      *****************************

  NA   - Mulliken gross atomic population
  ZA   - Total nuclear charge
  QA   - Mulliken gross atomic charge
  VA   - Mayer's total valence
  BVA  - Mayer's bonded valence
  FA   - Mayer's free valence

  ATOM       NA         ZA         QA         VA         BVA        FA
  0 S     15.8935    16.0000     0.1065     2.4689     2.4689    -0.0000
  1 C      6.1332     6.0000    -0.1332     3.8551     3.8551    -0.0000
  2 C      6.0952     6.0000    -0.0952     4.0279     4.0279    -0.0000
  3 C      5.9732     6.0000     0.0268     3.9152     3.9152    -0.0000
  4 C      6.1568     6.0000    -0.1568     3.9223     3.9223    -0.0000
  5 H      0.9852     1.0000     0.0148     1.0039     1.0039    -0.0000
  6 C      5.9047     6.0000     0.0953     3.9214     3.9214    -0.0000
  7 H      0.9805     1.0000     0.0195     0.9930     0.9930    -0.0000
  8 H      0.9840     1.0000     0.0160     0.9879     0.9879    -0.0000
  9 C      6.1002     6.0000    -0.1002     4.0933     4.0933    -0.0000
 10 H      0.9758     1.0000     0.0242     0.9846     0.9846    -0.0000
 11 H      0.9829     1.0000     0.0171     0.9672     0.9672     0.0000
 12 C      5.9587     6.0000     0.0413     3.9955     3.9955     0.0000
 13 H      0.9703     1.0000     0.0297     0.9916     0.9916     0.0000
 14 H      0.9982     1.0000     0.0018     0.9947     0.9947    -0.0000
 15 H      0.9769     1.0000     0.0231     0.9941     0.9941    -0.0000
 16 S     15.8953    16.0000     0.1047     2.4335     2.4335     0.0000
 17 C      6.0858     6.0000    -0.0858     3.8640     3.8640     0.0000
 18 C      5.9965     6.0000     0.0035     3.9492     3.9492    -0.0000
 19 C      6.0409     6.0000    -0.0409     4.0230     4.0230    -0.0000
 20 C      6.1524     6.0000    -0.1524     3.9018     3.9018    -0.0000
 21 H      0.9999     1.0000     0.0001     0.9970     0.9970    -0.0000
 22 C      5.9333     6.0000     0.0667     3.9646     3.9646    -0.0000
 23 H      0.9682     1.0000     0.0318     0.9805     0.9805    -0.0000
 24 H      0.9756     1.0000     0.0244     0.9983     0.9983    -0.0000
 25 C      6.0959     6.0000    -0.0959     4.0712     4.0712    -0.0000
 26 H      0.9711     1.0000     0.0289     0.9765     0.9765    -0.0000
 27 H      0.9599     1.0000     0.0401     0.9795     0.9795     0.0000
 28 C      6.0745     6.0000    -0.0745     3.9815     3.9815     0.0000
 29 H      0.9535     1.0000     0.0465     0.9877     0.9877    -0.0000
 30 H      0.9593     1.0000     0.0407     0.9952     0.9952    -0.0000
 31 H      0.9672     1.0000     0.0328     0.9870     0.9870     0.0000
 32 H      0.9544     1.0000     0.0456     1.0036     1.0036    -0.0000
 33 H      0.9469     1.0000     0.0531     0.9971     0.9971    -0.0000

  Mayer bond orders larger than 0.100000
B(  0-S ,  1-C ) :   1.1062 B(  0-S ,  4-C ) :   1.1746 B(  1-C ,  2-C ) :   1.6644 
B(  1-C , 32-H ) :   0.9664 B(  2-C ,  3-C ) :   1.2203 B(  2-C ,  6-C ) :   0.9969 
B(  3-C ,  4-C ) :   1.5586 B(  3-C ,  5-H ) :   0.9980 B(  4-C , 20-C ) :   1.0398 
B(  6-C ,  7-H ) :   0.9473 B(  6-C ,  8-H ) :   0.9263 B(  6-C ,  9-C ) :   1.0532 
B(  9-C , 10-H ) :   0.9639 B(  9-C , 11-H ) :   0.9424 B(  9-C , 12-C ) :   1.0857 
B( 12-C , 13-H ) :   0.9751 B( 12-C , 14-H ) :   0.9655 B( 12-C , 15-H ) :   0.9725 
B( 16-S , 17-C ) :   1.1354 B( 16-S , 20-C ) :   1.1143 B( 17-C , 18-C ) :   1.6560 
B( 17-C , 33-H ) :   0.9641 B( 18-C , 19-C ) :   1.1980 B( 18-C , 21-H ) :   0.9925 
B( 19-C , 20-C ) :   1.6170 B( 19-C , 22-C ) :   1.0490 B( 22-C , 23-H ) :   0.9330 
B( 22-C , 24-H ) :   0.9374 B( 22-C , 25-C ) :   1.0616 B( 25-C , 26-H ) :   0.9598 
B( 25-C , 27-H ) :   0.9621 B( 25-C , 28-C ) :   1.0542 B( 28-C , 29-H ) :   0.9789 
B( 28-C , 30-H ) :   0.9758 B( 28-C , 31-H ) :   0.9798 

-------
TIMINGS
-------

Total SCF time: 0 days 0 hours 0 min 19 sec 

Total time                  ....      19.733 sec
Sum of individual times     ....      18.875 sec  ( 95.6%)

Fock matrix formation       ....      17.247 sec  ( 87.4%)
  XC integration            ....       1.504 sec  (  8.7% of F)
    Basis function eval.    ....       0.148 sec  (  9.8% of XC)
    Density eval.           ....       0.106 sec  (  7.0% of XC)
    XC-Functional eval.     ....       0.118 sec  (  7.9% of XC)
    XC-Potential eval.      ....       0.129 sec  (  8.6% of XC)
Diagonalization             ....       0.130 sec  (  0.7%)
Density matrix formation    ....       0.023 sec  (  0.1%)
Population analysis         ....       0.057 sec  (  0.3%)
Initial guess               ....       0.165 sec  (  0.8%)
Orbital Transformation      ....       0.000 sec  (  0.0%)
Orbital Orthonormalization  ....       0.000 sec  (  0.0%)
DIIS solution               ....       0.156 sec  (  0.8%)
SOSCF solution              ....       0.128 sec  (  0.7%)
Grid generation             ....       0.969 sec  (  4.9%)


-------------------------------------------------------------------------------
                          DFT DISPERSION CORRECTION                            
                                                                               
                              DFTD3 V3.1  Rev 1                                
                              USING zero damping                               
-------------------------------------------------------------------------------
The omegaB97X-D3 functional is recognized. Fit by Chai et al.
Active option DFTDOPT                   ...         3   

molecular C6(AA) [au] = 14202.273229 


            DFT-D V3
 parameters
 s6 scaling factor         :     1.0000 
 rs6 scaling factor        :     1.2810 
 s8 scaling factor         :     1.0000 
 rs8 scaling factor        :     1.0940 
 Damping factor alpha6     :    14.0000 
 Damping factor alpha8     :    16.0000 
 ad hoc parameters k1-k3   :    16.0000     1.3333    -4.0000 

 Edisp/kcal,au: -9.185012310199  -0.014637247261 
 E6   /kcal   :  -4.181485990 
 E8   /kcal   :  -5.003526320 
 % E8         :  54.474900536 

-------------------------   ----------------
Dispersion correction           -0.014637247
-------------------------   ----------------


-------------------------   --------------------
FINAL SINGLE POINT ENERGY     -1339.850415358200
-------------------------   --------------------


                            ***************************************
                            *     ORCA property calculations      *
                            ***************************************

                                    ---------------------
                                    Active property flags
                                    ---------------------
   (+) Dipole Moment


------------------------------------------------------------------------------
                       ORCA ELECTRIC PROPERTIES CALCULATION
------------------------------------------------------------------------------

Dipole Moment Calculation                       ... on
Quadrupole Moment Calculation                   ... off
Polarizability Calculation                      ... off
GBWName                                         ... config_1159.gbw
Electron density file                           ... config_1159.scfp
The origin for moment calculation is the CENTER OF MASS  = (-72.419526, 37.677814 26.952011)

-------------
DIPOLE MOMENT
-------------
                                X             Y             Z
Electronic contribution:     19.93027      -5.52332     -12.35873
Nuclear contribution   :    -20.40172       5.69238      12.98720
                        -----------------------------------------
Total Dipole Moment    :     -0.47145       0.16906       0.62847
                        -----------------------------------------
Magnitude (a.u.)       :      0.80363
Magnitude (Debye)      :      2.04267



--------------------
Rotational spectrum 
--------------------
 
Rotational constants in cm-1:     0.020611     0.007573     0.006976 
Rotational constants in MHz :   617.896092   227.027732   209.127999 

 Dipole components along the rotational axes: 
x,y,z [a.u.] :     0.272720     0.705829     0.270658 
x,y,z [Debye]:     0.693199     1.794075     0.687958 

 

Timings for individual modules:

Sum of individual times         ...       20.903 sec (=   0.348 min)
GTO integral calculation        ...        0.776 sec (=   0.013 min)   3.7 %
SCF iterations                  ...       20.127 sec (=   0.335 min)  96.3 %
                             ****ORCA TERMINATED NORMALLY****
TOTAL RUN TIME: 0 days 0 hours 0 minutes 21 seconds 598 msec
