
                                 *****************
                                 * O   R   C   A *
                                 *****************

           --- An Ab Initio, DFT and Semiempirical electronic structure package ---

                  #######################################################
                  #                        -***-                        #
                  #          Department of theory and spectroscopy      #
                  #               Directorship: Frank Neese             #
                  #        Max Planck Institute fuer Kohlenforschung    #
                  #                Kaiser Wilhelm Platz 1               #
                  #                 D-45470 Muelheim/Ruhr               #
                  #                      Germany                        #
                  #                                                     #
                  #                  All rights reserved                #
                  #                        -***-                        #
                  #######################################################


                         Program Version 4.2.1 -  RELEASE  -


 With contributions from (in alphabetic order):
   Daniel Aravena         : Magnetic Suceptibility
   Michael Atanasov       : Ab Initio Ligand Field Theory (pilot matlab implementation)
   Alexander A. Auer      : GIAO ZORA, VPT2
   Ute Becker             : Parallelization
   Giovanni Bistoni       : ED, misc. LED, open-shell LED, HFLD
   Martin Brehm           : Molecular dynamics
   Dmytro Bykov           : SCF Hessian
   Vijay G. Chilkuri      : MRCI spin determinant printing, contributions to CSF-ICE
   Dipayan Datta          : RHF DLPNO-CCSD density
   Achintya Kumar Dutta   : EOM-CC, STEOM-CC
   Dmitry Ganyushin       : Spin-Orbit,Spin-Spin,Magnetic field MRCI
   Miquel Garcia          : C-PCM Hessian, Gaussian charge scheme
   Yang Guo               : DLPNO-NEVPT2, CIM, IAO-localization
   Andreas Hansen         : Spin unrestricted coupled pair/coupled cluster methods
   Benjamin Helmich-Paris : CASSCF linear response (MC-RPA)
   Lee Huntington         : MR-EOM, pCC
   Robert Izsak           : Overlap fitted RIJCOSX, COSX-SCS-MP3, EOM
   Christian Kollmar      : KDIIS, OOCD, Brueckner-CCSD(T), CCSD density
   Simone Kossmann        : Meta GGA functionals, TD-DFT gradient, OOMP2, MP2 Hessian
   Martin Krupicka        : AUTO-CI
   Lucas Lang             : DCDCAS
   Dagmar Lenk            : GEPOL surface, SMD
   Dimitrios Liakos       : Extrapolation schemes; Compound Job, initial MDCI parallelization
   Dimitrios Manganas     : Further ROCIS development; embedding schemes
   Dimitrios Pantazis     : SARC Basis sets
   Taras Petrenko         : DFT Hessian,TD-DFT gradient, ASA, ECA, R-Raman, ABS, FL, XAS/XES, NRVS
   Peter Pinski           : DLPNO-MP2, DLPNO-MP2 Gradient
   Christoph Reimann      : Effective Core Potentials
   Marius Retegan         : Local ZFS, SOC
   Christoph Riplinger    : Optimizer, TS searches, QM/MM, DLPNO-CCSD(T), (RO)-DLPNO pert. Triples
   Tobias Risthaus        : Range-separated hybrids, TD-DFT gradient, RPA, STAB
   Michael Roemelt        : Original ROCIS implementation
   Masaaki Saitow         : Open-shell DLPNO-CCSD energy and density
   Barbara Sandhoefer     : DKH picture change effects
   Avijit Sen             : IP-ROCIS
   Kantharuban Sivalingam : CASSCF convergence, NEVPT2, FIC-MRCI
   Bernardo de Souza      : ESD, SOC TD-DFT
   Georgi Stoychev        : AutoAux, RI-MP2 NMR
   Willem Van den Heuvel  : Paramagnetic NMR
   Boris Wezisla          : Elementary symmetry handling
   Frank Wennmohs         : Technical directorship


 We gratefully acknowledge several colleagues who have allowed us to
 interface, adapt or use parts of their codes:
   Stefan Grimme, W. Hujo, H. Kruse,             : VdW corrections, initial TS optimization,
                  C. Bannwarth                     DFT functionals, gCP, sTDA/sTD-DF
   Ed Valeev, F. Pavosevic, A. Kumar             : LibInt (2-el integral package), F12 methods
   Garnet Chan, S. Sharma, J. Yang, R. Olivares  : DMRG
   Ulf Ekstrom                                   : XCFun DFT Library
   Mihaly Kallay                                 : mrcc  (arbitrary order and MRCC methods)
   Andreas Klamt, Michael Diedenhofen            : otool_cosmo (COSMO solvation model)
   Jiri Pittner, Ondrej Demel                    : Mk-CCSD
   Frank Weinhold                                : gennbo (NPA and NBO analysis)
   Christopher J. Cramer and Donald G. Truhlar   : smd solvation model
   Lars Goerigk                                  : TD-DFT with DH, B97 family of functionals
   V. Asgeirsson, H. Jonsson                     : NEB implementation
   FAccTs GmbH                                   : IRC, NEB, NEB-TS, Multilevel, MM, QM/MM, CI optimization
   S Lehtola, MJT Oliveira, MAL Marques          : LibXC Library


 Your calculation uses the libint2 library for the computation of 2-el integrals
 For citations please refer to: http://libint.valeyev.net

 Your ORCA version has been built with support for libXC version: 4.2.3
 For citations please refer to: https://tddft.org/programs/libxc/

 This ORCA versions uses:
   CBLAS   interface :  Fast vector & matrix operations
   LAPACKE interface :  Fast linear algebra routines
   SCALAPACK package :  Parallel linear algebra routines


Your calculation utilizes the atom-pairwise dispersion correction
with the zero-damping scheme (D30)
Cite in your paper:
S.Grimme, J.Antony, S.Ehrlich and H.Krieg, J.Chem.Phys., 132, (2010), 154104 
   

XCFun DFT library Copyright 2009-2010 Ulf Ekstrom and contributors.
See http://admol.org/xcfun for more information. This is free soft-
ware; see the source code for copying conditions. There is ABSOLUTELY
NO WARRANTY; not even for MERCHANTABILITY or FITNESS FOR A PARTICULAR
PURPOSE. For details see the documentation. Scientific users of this 
library should cite U. Ekstrom, L. Visscher, R. Bast, A. J. Thorvald-
sen and K. Ruud; J.Chem.Theor.Comp. 2010, DOI: 10.1021/ct100117s
XCFun Version 0.99 
----- Orbital basis set information -----
Your calculation utilizes the basis: def2-SVP
   F. Weigend and R. Ahlrichs, Phys. Chem. Chem. Phys. 7, 3297 (2005).

================================================================================
                                        WARNINGS
                       Please study these warnings very carefully!
================================================================================


INFO   : the flag for use of LIBINT has been found!

================================================================================
                                       INPUT FILE
================================================================================
NAME = config_3011.inp
|  1> ! wB97X-D3 SP def2-SVP
|  2> %pal
|  3> nprocs 24
|  4> end
|  5> 
|  6> * xyz 0 1
|  7> S 	 -119.117 	 24.674 	 -16.9316 	 
|  8> C 	 -117.444 	 25.0071 	 -17.3448 	 
|  9> C 	 -116.596 	 25.2039 	 -16.2153 	 
| 10> C 	 -117.388 	 25.1538 	 -15.0235 	 
| 11> C 	 -118.767 	 24.9011 	 -15.1854 	 
| 12> H 	 -117.055 	 25.2441 	 -13.9782 	 
| 13> C 	 -115.17 	 25.5953 	 -16.2406 	 
| 14> H 	 -114.981 	 26.5513 	 -15.8114 	 
| 15> H 	 -114.92 	 25.7594 	 -17.3584 	 
| 16> C 	 -114.125 	 24.4464 	 -15.8423 	 
| 17> H 	 -114.164 	 24.1746 	 -14.7711 	 
| 18> H 	 -114.207 	 23.5538 	 -16.4117 	 
| 19> C 	 -112.702 	 24.8675 	 -16.021 	 
| 20> H 	 -112.405 	 24.5622 	 -17.0468 	 
| 21> H 	 -112.418 	 25.9212 	 -15.8259 	 
| 22> H 	 -111.924 	 24.3527 	 -15.4979 	 
| 23> S 	 -120.432 	 22.9358 	 -14.0882 	 
| 24> C 	 -121.529 	 23.2665 	 -12.8934 	 
| 25> C 	 -121.391 	 24.5691 	 -12.5153 	 
| 26> C 	 -120.319 	 25.2801 	 -13.0365 	 
| 27> C 	 -119.774 	 24.5584 	 -14.1312 	 
| 28> H 	 -122.12 	 24.9381 	 -11.8136 	 
| 29> C 	 -119.841 	 26.6878 	 -12.7463 	 
| 30> H 	 -118.737 	 26.6007 	 -12.6542 	 
| 31> H 	 -120.122 	 26.7088 	 -11.7183 	 
| 32> C 	 -120.389 	 27.9267 	 -13.5368 	 
| 33> H 	 -120.228 	 27.8323 	 -14.7096 	 
| 34> H 	 -119.838 	 28.8353 	 -13.1838 	 
| 35> C 	 -121.842 	 27.9481 	 -13.1976 	 
| 36> H 	 -122.004 	 27.9084 	 -12.1344 	 
| 37> H 	 -122.437 	 27.0389 	 -13.5621 	 
| 38> H 	 -122.279 	 28.8666 	 -13.6123 	 
| 39> H 	 -117.137 	 25.048 	 -18.382 	 
| 40> H 	 -122.14 	 22.5729 	 -12.4308 	 
| 41> *
| 42> 
| 43>                          ****END OF INPUT****
================================================================================

                       ****************************
                       * Single Point Calculation *
                       ****************************

---------------------------------
CARTESIAN COORDINATES (ANGSTROEM)
---------------------------------
  S    -119.117000   24.674000  -16.931600
  C    -117.444000   25.007100  -17.344800
  C    -116.596000   25.203900  -16.215300
  C    -117.388000   25.153800  -15.023500
  C    -118.767000   24.901100  -15.185400
  H    -117.055000   25.244100  -13.978200
  C    -115.170000   25.595300  -16.240600
  H    -114.981000   26.551300  -15.811400
  H    -114.920000   25.759400  -17.358400
  C    -114.125000   24.446400  -15.842300
  H    -114.164000   24.174600  -14.771100
  H    -114.207000   23.553800  -16.411700
  C    -112.702000   24.867500  -16.021000
  H    -112.405000   24.562200  -17.046800
  H    -112.418000   25.921200  -15.825900
  H    -111.924000   24.352700  -15.497900
  S    -120.432000   22.935800  -14.088200
  C    -121.529000   23.266500  -12.893400
  C    -121.391000   24.569100  -12.515300
  C    -120.319000   25.280100  -13.036500
  C    -119.774000   24.558400  -14.131200
  H    -122.120000   24.938100  -11.813600
  C    -119.841000   26.687800  -12.746300
  H    -118.737000   26.600700  -12.654200
  H    -120.122000   26.708800  -11.718300
  C    -120.389000   27.926700  -13.536800
  H    -120.228000   27.832300  -14.709600
  H    -119.838000   28.835300  -13.183800
  C    -121.842000   27.948100  -13.197600
  H    -122.004000   27.908400  -12.134400
  H    -122.437000   27.038900  -13.562100
  H    -122.279000   28.866600  -13.612300
  H    -117.137000   25.048000  -18.382000
  H    -122.140000   22.572900  -12.430800

----------------------------
CARTESIAN COORDINATES (A.U.)
----------------------------
  NO LB      ZA    FRAG     MASS         X           Y           Z
   0 S    16.0000    0    32.060  -225.098508   46.627103  -31.996087
   1 C     6.0000    0    12.011  -221.936996   47.256570  -32.776922
   2 C     6.0000    0    12.011  -220.334508   47.628469  -30.642476
   3 C     6.0000    0    12.011  -221.831171   47.533793  -28.390301
   4 C     6.0000    0    12.011  -224.437104   47.056259  -28.696247
   5 H     1.0000    0     1.008  -221.201893   47.704435  -26.414970
   6 C     6.0000    0    12.011  -217.639759   48.368107  -30.690286
   7 H     1.0000    0     1.008  -217.282601   50.174685  -29.879216
   8 H     1.0000    0     1.008  -217.167327   48.678211  -32.802622
   9 C     6.0000    0    12.011  -215.664995   46.197001  -29.937608
  10 H     1.0000    0     1.008  -215.738694   45.683373  -27.913334
  11 H     1.0000    0     1.008  -215.819953   44.510231  -31.013618
  12 C     6.0000    0    12.011  -212.975915   46.992765  -30.275302
  13 H     1.0000    0     1.008  -212.414666   46.415831  -32.213783
  14 H     1.0000    0     1.008  -212.439233   48.983969  -29.906617
  15 H     1.0000    0     1.008  -211.505708   46.019934  -29.286787
  16 S    16.0000    0    32.060  -227.583498   43.342381  -26.622840
  17 C     6.0000    0    12.011  -229.656527   43.967313  -24.364995
  18 C     6.0000    0    12.011  -229.395745   46.428870  -23.650489
  19 C     6.0000    0    12.011  -227.369959   47.772466  -24.635415
  20 C     6.0000    0    12.011  -226.340058   46.408650  -26.704098
  21 H     1.0000    0     1.008  -230.773355   47.126179  -22.324469
  22 C     6.0000    0    12.011  -226.466670   50.432633  -24.087016
  23 H     1.0000    0     1.008  -224.380412   50.268038  -23.912972
  24 H     1.0000    0     1.008  -226.997683   50.472317  -22.144378
  25 C     6.0000    0    12.011  -227.502240   52.773815  -25.580845
  26 H     1.0000    0     1.008  -227.197994   52.595425  -27.797116
  27 H     1.0000    0     1.008  -226.461000   54.490820  -24.913771
  28 C     6.0000    0    12.011  -230.248012   52.814255  -24.939850
  29 H     1.0000    0     1.008  -230.554147   52.739233  -22.930693
  30 H     1.0000    0     1.008  -231.372399   51.096116  -25.628655
  31 H     1.0000    0     1.008  -231.073822   54.549968  -25.723519
  32 H     1.0000    0     1.008  -221.356850   47.333860  -34.736946
  33 H     1.0000    0     1.008  -230.811150   42.656599  -23.490808

--------------------------------
INTERNAL COORDINATES (ANGSTROEM)
--------------------------------
 S      0   0   0     0.000000000000     0.00000000     0.00000000
 C      1   0   0     1.755169179880     0.00000000     0.00000000
 C      2   1   0     1.426045051883   113.98764886     0.00000000
 C      3   2   1     1.431838416163   108.99690901   356.39982000
 C      4   3   2     1.411279525820   116.82467468     1.45208030
 H      4   3   2     1.100770266677   128.33146805   178.50740003
 C      3   2   1     1.478955729561   126.60766917   184.76376728
 H      7   3   2     1.064833151250   113.69323625   114.86328375
 H      7   3   2     1.157110906525   105.21112309     2.99453520
 C      7   3   2     1.603321271611   115.75641350   251.75809301
 H     10   7   3     1.105832573223   113.18994670   290.26434719
 H     10   7   3     1.061920486666   114.75801076    54.94836491
 C     10   7   3     1.494720007225   112.88741520   174.22286044
 H     13  10   7     1.110712712631   106.71089600   268.05267731
 H     13  10   7     1.108604392919   119.38123242    34.54732850
 H     13  10   7     1.069549741714   119.89638954   159.20705074
 S      5   4   3     2.799728010004   131.43973803   124.72186192
 C     17   5   4     1.655390748434   122.46076194   105.94238162
 C     18  17   5     1.363367290938   108.90232555   355.74782314
 C     19  18  17     1.387931713018   117.61168579   352.25983516
 C     20  19  18     1.419945062318   109.00133828    14.41113221
 H     19  18  17     1.077025946763   116.07269178   173.81364064
 C     20  19  18     1.514701069518   130.38192678   184.68317024
 H     23  20  19     1.111253715404   104.86542751   136.02575465
 H     23  20  19     1.065920259682    96.88578401    33.12265973
 C     23  20  19     1.568460219451   121.82094581   271.55497779
 H     26  23  20     1.187557240726   112.80392564   302.83013192
 H     26  23  20     1.119716017569   108.06742266   183.49667002
 C     26  23  20     1.492221029204   103.70760230    62.95502934
 H     29  26  23     1.076203665669   111.75319469    51.45469261
 H     29  26  23     1.146093316445   114.95075713   295.91068214
 H     29  26  23     1.098447695614   108.27339162   172.90275065
 H      2   1   3     1.082453532490   120.20431734   179.99106821
 H     18  17   5     1.033634713039   125.49938041   182.44893636

---------------------------
INTERNAL COORDINATES (A.U.)
---------------------------
 S      0   0   0     0.000000000000     0.00000000     0.00000000
 C      1   0   0     3.316789068672     0.00000000     0.00000000
 C      2   1   0     2.694834602692   113.98764886     0.00000000
 C      3   2   1     2.705782474576   108.99690901   356.39982000
 C      4   3   2     2.666931802211   116.82467468     1.45208030
 H      4   3   2     2.080154340383   128.33146805   178.50740003
 C      3   2   1     2.794821293063   126.60766917   184.76376728
 H      7   3   2     2.012243034182   113.69323625   114.86328375
 H      7   3   2     2.186622719906   105.21112309     2.99453520
 C      7   3   2     3.029838108035   115.75641350   251.75809301
 H     10   7   3     2.089720713360   113.18994670   290.26434719
 H     10   7   3     2.006738895798   114.75801076    54.94836491
 C     10   7   3     2.824611460549   112.88741520   174.22286044
 H     13  10   7     2.098942840337   106.71089600   268.05267731
 H     13  10   7     2.094958693480   119.38123242    34.54732850
 H     13  10   7     2.021156098445   119.89638954   159.20705074
 S      5   4   3     5.290719188376   131.43973803   124.72186192
 C     17   5   4     3.128235159167   122.46076194   105.94238162
 C     18  17   5     2.576390799819   108.90232555   355.74782314
 C     19  18  17     2.622810830187   117.61168579   352.25983516
 C     20  19  18     2.683307292994   109.00133828    14.41113221
 H     19  18  17     2.035284078509   116.07269178   173.81364064
 C     20  19  18     2.862370196147   130.38192678   184.68317024
 H     23  20  19     2.099965187417   104.86542751   136.02575465
 H     23  20  19     2.014297371397    96.88578401    33.12265973
 C     23  20  19     2.963960266712   121.82094581   271.55497779
 H     26  23  20     2.244157953327   112.80392564   302.83013192
 H     26  23  20     2.115956620970   108.06742266   183.49667002
 C     26  23  20     2.819889076475   103.70760230    62.95502934
 H     29  26  23     2.033730192437   111.75319469    51.45469261
 H     29  26  23     2.165802491999   114.95075713   295.91068214
 H     29  26  23     2.075765317148   108.27339162   172.90275065
 H      2   1   3     2.045540729102   120.20431734   179.99106821
 H     18  17   5     1.953286530159   125.49938041   182.44893636

---------------------
BASIS SET INFORMATION
---------------------
There are 3 groups of distinct atoms

 Group   1 Type S   : 10s7p1d contracted to 4s3p1d pattern {5311/511/1}
 Group   2 Type C   : 7s4p1d contracted to 3s2p1d pattern {511/31/1}
 Group   3 Type H   : 4s1p contracted to 2s1p pattern {31/1}

Atom   0S    basis set group =>   1
Atom   1C    basis set group =>   2
Atom   2C    basis set group =>   2
Atom   3C    basis set group =>   2
Atom   4C    basis set group =>   2
Atom   5H    basis set group =>   3
Atom   6C    basis set group =>   2
Atom   7H    basis set group =>   3
Atom   8H    basis set group =>   3
Atom   9C    basis set group =>   2
Atom  10H    basis set group =>   3
Atom  11H    basis set group =>   3
Atom  12C    basis set group =>   2
Atom  13H    basis set group =>   3
Atom  14H    basis set group =>   3
Atom  15H    basis set group =>   3
Atom  16S    basis set group =>   1
Atom  17C    basis set group =>   2
Atom  18C    basis set group =>   2
Atom  19C    basis set group =>   2
Atom  20C    basis set group =>   2
Atom  21H    basis set group =>   3
Atom  22C    basis set group =>   2
Atom  23H    basis set group =>   3
Atom  24H    basis set group =>   3
Atom  25C    basis set group =>   2
Atom  26H    basis set group =>   3
Atom  27H    basis set group =>   3
Atom  28C    basis set group =>   2
Atom  29H    basis set group =>   3
Atom  30H    basis set group =>   3
Atom  31H    basis set group =>   3
Atom  32H    basis set group =>   3
Atom  33H    basis set group =>   3


           ************************************************************
           *        Program running with 24 parallel MPI-processes    *
           *              working on a common directory               *
           ************************************************************
------------------------------------------------------------------------------
                           ORCA GTO INTEGRAL CALCULATION
------------------------------------------------------------------------------

                         BASIS SET STATISTICS AND STARTUP INFO

 # of primitive gaussian shells          ...  294
 # of primitive gaussian functions       ...  534
 # of contracted shells                  ...  154
 # of contracted basis functions         ...  322
 Highest angular momentum                ...    2
 Maximum contraction depth               ...    5
 Integral package used                   ... LIBINT
 Integral threshhold            Thresh   ...  1.000e-10
 Primitive cut-off              TCut     ...  1.000e-11


------------------------------ INTEGRAL EVALUATION ----------------------------


 * One electron integrals 
 Pre-screening matrix                    ... done
 Shell pair data                         ... done (   0.003 sec)



           ************************************************************
           *        Program running with 24 parallel MPI-processes    *
           *              working on a common directory               *
           ************************************************************
-------------------------------------------------------------------------------
                                 ORCA SCF
-------------------------------------------------------------------------------

------------
SCF SETTINGS
------------
Hamiltonian:
 Density Functional     Method          .... DFT(GTOs)
 Exchange Functional    Exchange        .... WB97X-D3
 Correlation Functional Correlation     .... WB97X-D3
 Gradients option       PostSCFGGA      .... off
 Hybrid DFT is turned on
   Fraction HF Exchange ScalHFX         ....  0.195728
   Scaling of DF-GGA-X  ScalDFX         ....  0.000000
   Scaling of DF-GGA-C  ScalDFC         ....  1.000000
   Scaling of DF-LDA-C  ScalLDAC        ....  1.000000
   Perturbative correction              ....  0.000000
   Density functional embedding theory  .... OFF
 Long-range corrected/Screened/Range-Separated Hybrid DFT is turned on
   Amount of maximum screened exact exchange              ....  0.804272
   Range separation parameter mu (erf(mu*r12)/r12)        ....  0.250000


General Settings:
 Integral files         IntName         .... config_3011
 Hartree-Fock type      HFTyp           .... RHF
 Total Charge           Charge          ....    0
 Multiplicity           Mult            ....    1
 Number of Electrons    NEL             ....  134
 Basis Dimension        Dim             ....  322
 Nuclear Repulsion      ENuc            ....   1271.0318999785 Eh

Convergence Acceleration:
 DIIS                   CNVDIIS         .... on
   Start iteration      DIISMaxIt       ....    12
   Startup error        DIISStart       ....  0.200000
   # of expansion vecs  DIISMaxEq       ....     5
   Bias factor          DIISBfac        ....   1.050
   Max. coefficient     DIISMaxC        ....  10.000
 Newton-Raphson         CNVNR           .... off
 SOSCF                  CNVSOSCF        .... on
   Start iteration      SOSCFMaxIt      ....   150
   Startup grad/error   SOSCFStart      ....  0.003300
 Level Shifting         CNVShift        .... on
   Level shift para.    LevelShift      ....    0.2500
   Turn off err/grad.   ShiftErr        ....    0.0010
 Zerner damping         CNVZerner       .... off
 Static damping         CNVDamp         .... on
   Fraction old density DampFac         ....    0.7000
   Max. Damping (<1)    DampMax         ....    0.9800
   Min. Damping (>=0)   DampMin         ....    0.0000
   Turn off err/grad.   DampErr         ....    0.1000
 Fernandez-Rico         CNVRico         .... off

SCF Procedure:
 Maximum # iterations   MaxIter         ....   125
 SCF integral mode      SCFMode         .... Direct
   Integral package                     .... LIBINT
 Reset frequency        DirectResetFreq ....    20
 Integral Threshold     Thresh          ....  1.000e-10 Eh
 Primitive CutOff       TCut            ....  1.000e-11 Eh

Convergence Tolerance:
 Convergence Check Mode ConvCheckMode   .... Total+1el-Energy
 Convergence forced     ConvForced      .... 0
 Energy Change          TolE            ....  1.000e-06 Eh
 1-El. energy change                    ....  1.000e-03 Eh
 Orbital Gradient       TolG            ....  5.000e-05
 Orbital Rotation angle TolX            ....  5.000e-05
 DIIS Error             TolErr          ....  1.000e-06


Diagonalization of the overlap matrix:
Smallest eigenvalue                        ... 7.233e-04
Time for diagonalization                   ...    0.014 sec
Threshold for overlap eigenvalues          ... 1.000e-08
Number of eigenvalues below threshold      ... 0
Time for construction of square roots      ...    0.026 sec
Total time needed                          ...    0.040 sec

-------------------
DFT GRID GENERATION
-------------------

General Integration Accuracy     IntAcc      ...  4.340
Radial Grid Type                 RadialGrid  ... Gauss-Chebyshev
Angular Grid (max. acc.)         AngularGrid ... Lebedev-110
Angular grid pruning method      GridPruning ... 3 (G Style)
Weight generation scheme         WeightScheme... Becke
Basis function cutoff            BFCut       ...    1.0000e-10
Integration weight cutoff        WCut        ...    1.0000e-14
Grids for H and He will be reduced by one unit

# of grid points (after initial pruning)     ...  41088 (   0.0 sec)
# of grid points (after weights+screening)   ...  37077 (   0.0 sec)
nearest neighbour list constructed           ...    0.0 sec
Grid point re-assignment to atoms done       ...    0.0 sec
Grid point division into batches done        ...    0.0 sec
Reduced shell lists constructed in    0.1 sec

Total number of grid points                  ...    37077
Total number of batches                      ...      593
Average number of points per batch           ...       62
Average number of grid points per atom       ...     1090
Average number of shells per batch           ...    72.77 (47.25%)
Average number of basis functions per batch  ...   142.92 (44.39%)
Average number of large shells per batch     ...    46.54 (63.95%)
Average number of large basis fcns per batch ...    95.77 (67.01%)
Maximum spatial batch extension              ...  13.82, 20.10, 13.79 au
Average spatial batch extension              ...   0.15,  0.18,  0.14 au

Time for grid setup =    0.148 sec

------------------------------
INITIAL GUESS: MODEL POTENTIAL
------------------------------
Loading Hartree-Fock densities                     ... done
Calculating cut-offs                               ... done
Setting up the integral package                    ... done
Initializing the effective Hamiltonian             ... done
Starting the Coulomb interaction                   ... done (   0.0 sec)
Reading the grid                                   ... done
Mapping shells                                     ... done
Starting the XC term evaluation                    ... done (   0.0 sec)
  promolecular density results
     # of electrons  =    133.980863544
     EX              =   -126.692861887
     EC              =     -4.614331914
     EX+EC           =   -131.307193801
Transforming the Hamiltonian                       ... done (   0.0 sec)
Diagonalizing the Hamiltonian                      ... done (   0.0 sec)
Back transforming the eigenvectors                 ... done (   0.0 sec)
Now organizing SCF variables                       ... done
                      ------------------
                      INITIAL GUESS DONE (   0.3 sec)
                      ------------------
--------------
SCF ITERATIONS
--------------
ITER       Energy         Delta-E        Max-DP      RMS-DP      [F,P]     Damp
               ***  Starting incremental Fock matrix formation  ***
  0  -1339.3998330554   0.000000000000 0.06667271  0.00155224  0.1674181 0.7000
  1  -1339.5860015157  -0.186168460330 0.04454785  0.00113628  0.1006469 0.7000
                               ***Turning on DIIS***
  2  -1339.6760046682  -0.090003152460 0.09065673  0.00214681  0.0516239 0.0000
  3  -1339.8113130794  -0.135308411283 0.04287919  0.00093841  0.0400409 0.0000
  4  -1339.8407626021  -0.029449522608 0.00761282  0.00019831  0.0079734 0.0000
                      *** Initiating the SOSCF procedure ***
                           *** Shutting down DIIS ***
                      *** Re-Reading the Fockian *** 
                      *** Removing any level shift *** 
ITER      Energy       Delta-E        Grad      Rot      Max-DP    RMS-DP
  5  -1339.84168618  -0.0009235761  0.001720  0.001720  0.002939  0.000098
               *** Restarting incremental Fock matrix formation ***
  6  -1339.84186526  -0.0001790796  0.001307  0.003643  0.002817  0.000063
  7  -1339.84192224  -0.0000569853  0.000917  0.005295  0.003697  0.000064
  8  -1339.84193771  -0.0000154702  0.000363  0.000917  0.000832  0.000022
  9  -1339.84194265  -0.0000049373  0.000156  0.000345  0.000365  0.000009
 10  -1339.84194326  -0.0000006072  0.000052  0.000249  0.000179  0.000004
                 **** Energy Check signals convergence ****
              ***Rediagonalizing the Fockian in SOSCF/NRSCF***

               *****************************************************
               *                     SUCCESS                       *
               *           SCF CONVERGED AFTER  11 CYCLES          *
               *****************************************************

Setting up the final grid:

General Integration Accuracy     IntAcc      ...  4.670
Radial Grid Type                 RadialGrid  ... Gauss-Chebyshev
Angular Grid (max. acc.)         AngularGrid ... Lebedev-302
Angular grid pruning method      GridPruning ... 3 (G Style)
Weight generation scheme         WeightScheme... Becke
Basis function cutoff            BFCut       ...    1.0000e-10
Integration weight cutoff        WCut        ...    1.0000e-14
Grids for H and He will be reduced by one unit

# of grid points (after initial pruning)     ... 161752 (   0.0 sec)
# of grid points (after weights+screening)   ... 143091 (   0.1 sec)
nearest neighbour list constructed           ...    0.0 sec
Grid point re-assignment to atoms done       ...    0.0 sec
Grid point division into batches done        ...    0.5 sec
Reduced shell lists constructed in    0.5 sec

Total number of grid points                  ...   143091
Total number of batches                      ...     2254
Average number of points per batch           ...       63
Average number of grid points per atom       ...     4209
Average number of shells per batch           ...    66.73 (43.33%)
Average number of basis functions per batch  ...   130.58 (40.55%)
Average number of large shells per batch     ...    41.03 (61.49%)
Average number of large basis fcns per batch ...    84.02 (64.35%)
Maximum spatial batch extension              ...  13.79, 14.61, 11.58 au
Average spatial batch extension              ...   0.10,  0.11,  0.10 au

Final grid set up in    0.9 sec
Final integration                            ... done (   0.2 sec)
Change in XC energy                          ...     0.007133538
Integrated number of electrons               ...   133.999982882
Previous integrated no of electrons          ...   133.995961765

----------------
TOTAL SCF ENERGY
----------------

Total Energy       :        -1339.83480995 Eh          -36458.75871 eV

Components:
Nuclear Repulsion  :         1271.03189998 Eh           34586.53634 eV
Electronic Energy  :        -2610.86670992 Eh          -71045.29505 eV
One Electron Energy:        -4358.77240018 Eh         -118608.22693 eV
Two Electron Energy:         1747.90569025 Eh           47562.93188 eV

Virial components:
Potential Energy   :        -2671.15277072 Eh          -72685.76216 eV
Kinetic Energy     :         1331.31796078 Eh           36227.00346 eV
Virial Ratio       :            2.00639731


DFT components:
N(Alpha)           :       66.999991441131 electrons
N(Beta)            :       66.999991441131 electrons
N(Total)           :      133.999982882261 electrons
E(XC)              :      -94.209619382885 Eh       
DFET-embed. en.    :        0.000000000000 Eh       

---------------
SCF CONVERGENCE
---------------

  Last Energy change         ...   -2.2623e-07  Tolerance :   1.0000e-06
  Last MAX-Density change    ...    2.6555e-05  Tolerance :   1.0000e-05
  Last RMS-Density change    ...    6.9513e-07  Tolerance :   1.0000e-06
  Last Orbital Gradient      ...    7.5553e-06  Tolerance :   5.0000e-05
  Last Orbital Rotation      ...    2.6122e-05  Tolerance :   5.0000e-05

             **** THE GBW FILE WAS UPDATED (config_3011.gbw) ****
             **** DENSITY FILE WAS UPDATED (config_3011.scfp) ****
             **** ENERGY FILE WAS UPDATED (config_3011.en.tmp) ****
             **** THE GBW FILE WAS UPDATED (config_3011.gbw) ****
             **** DENSITY FILE WAS UPDATED (config_3011.scfp) ****
----------------
ORBITAL ENERGIES
----------------

  NO   OCC          E(Eh)            E(eV) 
   0   2.0000     -88.968946     -2420.9681 
   1   2.0000     -88.961432     -2420.7636 
   2   2.0000     -10.336128      -281.2603 
   3   2.0000     -10.326883      -281.0088 
   4   2.0000     -10.321815      -280.8709 
   5   2.0000     -10.307766      -280.4886 
   6   2.0000     -10.302556      -280.3468 
   7   2.0000     -10.301896      -280.3288 
   8   2.0000     -10.301297      -280.3126 
   9   2.0000     -10.299733      -280.2700 
  10   2.0000     -10.299425      -280.2616 
  11   2.0000     -10.289842      -280.0008 
  12   2.0000     -10.289599      -279.9942 
  13   2.0000     -10.285113      -279.8721 
  14   2.0000     -10.276319      -279.6329 
  15   2.0000     -10.275337      -279.6061 
  16   2.0000      -8.082637      -219.9397 
  17   2.0000      -8.077997      -219.8135 
  18   2.0000      -6.041101      -164.3867 
  19   2.0000      -6.037233      -164.2815 
  20   2.0000      -6.036021      -164.2485 
  21   2.0000      -6.033563      -164.1816 
  22   2.0000      -6.032054      -164.1405 
  23   2.0000      -6.029319      -164.0661 
  24   2.0000      -1.010037       -27.4845 
  25   2.0000      -0.980671       -26.6854 
  26   2.0000      -0.911749       -24.8099 
  27   2.0000      -0.908020       -24.7085 
  28   2.0000      -0.866262       -23.5722 
  29   2.0000      -0.854267       -23.2458 
  30   2.0000      -0.848484       -23.0884 
  31   2.0000      -0.812770       -22.1166 
  32   2.0000      -0.780910       -21.2496 
  33   2.0000      -0.767460       -20.8836 
  34   2.0000      -0.705889       -19.2082 
  35   2.0000      -0.700069       -19.0499 
  36   2.0000      -0.690589       -18.7919 
  37   2.0000      -0.656149       -17.8547 
  38   2.0000      -0.643650       -17.5146 
  39   2.0000      -0.615748       -16.7553 
  40   2.0000      -0.591658       -16.0998 
  41   2.0000      -0.574408       -15.6304 
  42   2.0000      -0.559708       -15.2304 
  43   2.0000      -0.550534       -14.9808 
  44   2.0000      -0.547928       -14.9099 
  45   2.0000      -0.525386       -14.2965 
  46   2.0000      -0.516589       -14.0571 
  47   2.0000      -0.514146       -13.9906 
  48   2.0000      -0.500917       -13.6306 
  49   2.0000      -0.499125       -13.5819 
  50   2.0000      -0.488047       -13.2804 
  51   2.0000      -0.481516       -13.1027 
  52   2.0000      -0.468548       -12.7498 
  53   2.0000      -0.454642       -12.3714 
  54   2.0000      -0.450694       -12.2640 
  55   2.0000      -0.448854       -12.2139 
  56   2.0000      -0.442794       -12.0490 
  57   2.0000      -0.440056       -11.9745 
  58   2.0000      -0.428872       -11.6702 
  59   2.0000      -0.424993       -11.5647 
  60   2.0000      -0.423099       -11.5131 
  61   2.0000      -0.406651       -11.0655 
  62   2.0000      -0.402309       -10.9474 
  63   2.0000      -0.341576        -9.2947 
  64   2.0000      -0.332220        -9.0402 
  65   2.0000      -0.326239        -8.8774 
  66   2.0000      -0.290573        -7.9069 
  67   0.0000       0.032661         0.8887 
  68   0.0000       0.059966         1.6317 
  69   0.0000       0.117326         3.1926 
  70   0.0000       0.124123         3.3776 
  71   0.0000       0.126903         3.4532 
  72   0.0000       0.146751         3.9933 
  73   0.0000       0.148641         4.0447 
  74   0.0000       0.154501         4.2042 
  75   0.0000       0.164673         4.4810 
  76   0.0000       0.168643         4.5890 
  77   0.0000       0.173224         4.7137 
  78   0.0000       0.189604         5.1594 
  79   0.0000       0.193779         5.2730 
  80   0.0000       0.194178         5.2838 
  81   0.0000       0.202473         5.5096 
  82   0.0000       0.210103         5.7172 
  83   0.0000       0.214917         5.8482 
  84   0.0000       0.219381         5.9697 
  85   0.0000       0.224712         6.1147 
  86   0.0000       0.227251         6.1838 
  87   0.0000       0.240034         6.5317 
  88   0.0000       0.246809         6.7160 
  89   0.0000       0.249622         6.7926 
  90   0.0000       0.252813         6.8794 
  91   0.0000       0.261366         7.1121 
  92   0.0000       0.288507         7.8507 
  93   0.0000       0.295651         8.0451 
  94   0.0000       0.311595         8.4789 
  95   0.0000       0.318355         8.6629 
  96   0.0000       0.324100         8.8192 
  97   0.0000       0.336887         9.1672 
  98   0.0000       0.342784         9.3276 
  99   0.0000       0.368927        10.0390 
 100   0.0000       0.382014        10.3951 
 101   0.0000       0.398628        10.8472 
 102   0.0000       0.409356        11.1391 
 103   0.0000       0.416667        11.3381 
 104   0.0000       0.432743        11.7755 
 105   0.0000       0.446227        12.1425 
 106   0.0000       0.456975        12.4349 
 107   0.0000       0.478161        13.0114 
 108   0.0000       0.485604        13.2140 
 109   0.0000       0.490010        13.3338 
 110   0.0000       0.503422        13.6988 
 111   0.0000       0.510204        13.8834 
 112   0.0000       0.517512        14.0822 
 113   0.0000       0.519747        14.1430 
 114   0.0000       0.533632        14.5209 
 115   0.0000       0.537250        14.6193 
 116   0.0000       0.552781        15.0419 
 117   0.0000       0.557424        15.1683 
 118   0.0000       0.563230        15.3263 
 119   0.0000       0.569664        15.5014 
 120   0.0000       0.573607        15.6086 
 121   0.0000       0.584984        15.9182 
 122   0.0000       0.603221        16.4145 
 123   0.0000       0.606110        16.4931 
 124   0.0000       0.621501        16.9119 
 125   0.0000       0.625515        17.0211 
 126   0.0000       0.633627        17.2419 
 127   0.0000       0.645859        17.5747 
 128   0.0000       0.649651        17.6779 
 129   0.0000       0.655857        17.8468 
 130   0.0000       0.674494        18.3539 
 131   0.0000       0.678025        18.4500 
 132   0.0000       0.690272        18.7833 
 133   0.0000       0.702925        19.1276 
 134   0.0000       0.707682        19.2570 
 135   0.0000       0.717364        19.5205 
 136   0.0000       0.719203        19.5705 
 137   0.0000       0.728525        19.8242 
 138   0.0000       0.734089        19.9756 
 139   0.0000       0.736392        20.0382 
 140   0.0000       0.739799        20.1310 
 141   0.0000       0.740881        20.1604 
 142   0.0000       0.742183        20.1958 
 143   0.0000       0.754627        20.5344 
 144   0.0000       0.762700        20.7541 
 145   0.0000       0.763719        20.7819 
 146   0.0000       0.768513        20.9123 
 147   0.0000       0.770732        20.9727 
 148   0.0000       0.775898        21.1133 
 149   0.0000       0.777515        21.1573 
 150   0.0000       0.781088        21.2545 
 151   0.0000       0.785240        21.3675 
 152   0.0000       0.790837        21.5198 
 153   0.0000       0.796544        21.6751 
 154   0.0000       0.798306        21.7230 
 155   0.0000       0.802843        21.8465 
 156   0.0000       0.808737        22.0069 
 157   0.0000       0.810158        22.0455 
 158   0.0000       0.822151        22.3719 
 159   0.0000       0.829519        22.5724 
 160   0.0000       0.833574        22.6827 
 161   0.0000       0.836922        22.7738 
 162   0.0000       0.839244        22.8370 
 163   0.0000       0.842416        22.9233 
 164   0.0000       0.850038        23.1307 
 165   0.0000       0.855634        23.2830 
 166   0.0000       0.861006        23.4292 
 167   0.0000       0.867694        23.6112 
 168   0.0000       0.878085        23.8939 
 169   0.0000       0.892651        24.2903 
 170   0.0000       0.917175        24.9576 
 171   0.0000       0.919425        25.0188 
 172   0.0000       0.926927        25.2230 
 173   0.0000       0.934315        25.4240 
 174   0.0000       0.952580        25.9210 
 175   0.0000       0.963585        26.2205 
 176   0.0000       0.972272        26.4569 
 177   0.0000       0.992244        27.0003 
 178   0.0000       1.001870        27.2623 
 179   0.0000       1.016870        27.6704 
 180   0.0000       1.054248        28.6875 
 181   0.0000       1.065839        29.0029 
 182   0.0000       1.093918        29.7670 
 183   0.0000       1.103878        30.0380 
 184   0.0000       1.124812        30.6077 
 185   0.0000       1.133664        30.8486 
 186   0.0000       1.140862        31.0444 
 187   0.0000       1.159243        31.5446 
 188   0.0000       1.164595        31.6902 
 189   0.0000       1.209491        32.9119 
 190   0.0000       1.221477        33.2381 
 191   0.0000       1.223230        33.2858 
 192   0.0000       1.255609        34.1669 
 193   0.0000       1.269957        34.5573 
 194   0.0000       1.282686        34.9036 
 195   0.0000       1.291047        35.1312 
 196   0.0000       1.302928        35.4545 
 197   0.0000       1.323924        36.0258 
 198   0.0000       1.342817        36.5399 
 199   0.0000       1.366305        37.1790 
 200   0.0000       1.384577        37.6763 
 201   0.0000       1.400154        38.1001 
 202   0.0000       1.419734        38.6329 
 203   0.0000       1.434716        39.0406 
 204   0.0000       1.454535        39.5799 
 205   0.0000       1.472798        40.0769 
 206   0.0000       1.489576        40.5334 
 207   0.0000       1.512730        41.1635 
 208   0.0000       1.543778        42.0083 
 209   0.0000       1.564761        42.5793 
 210   0.0000       1.575290        42.8658 
 211   0.0000       1.597777        43.4777 
 212   0.0000       1.637318        44.5537 
 213   0.0000       1.648525        44.8587 
 214   0.0000       1.665491        45.3203 
 215   0.0000       1.672214        45.5033 
 216   0.0000       1.672788        45.5189 
 217   0.0000       1.717460        46.7345 
 218   0.0000       1.744310        47.4651 
 219   0.0000       1.758586        47.8536 
 220   0.0000       1.770802        48.1860 
 221   0.0000       1.772607        48.2351 
 222   0.0000       1.808843        49.2211 
 223   0.0000       1.812431        49.3188 
 224   0.0000       1.829724        49.7893 
 225   0.0000       1.837114        49.9904 
 226   0.0000       1.841571        50.1117 
 227   0.0000       1.842905        50.1480 
 228   0.0000       1.849437        50.3257 
 229   0.0000       1.863094        50.6974 
 230   0.0000       1.868756        50.8514 
 231   0.0000       1.874228        51.0003 
 232   0.0000       1.883271        51.2464 
 233   0.0000       1.886299        51.3288 
 234   0.0000       1.893237        51.5176 
 235   0.0000       1.899297        51.6825 
 236   0.0000       1.909304        51.9548 
 237   0.0000       1.921081        52.2753 
 238   0.0000       1.922790        52.3218 
 239   0.0000       1.935406        52.6651 
 240   0.0000       1.950662        53.0802 
 241   0.0000       1.956745        53.2457 
 242   0.0000       1.960141        53.3381 
 243   0.0000       1.968514        53.5660 
 244   0.0000       1.979200        53.8568 
 245   0.0000       1.981166        53.9103 
 246   0.0000       2.010258        54.7019 
 247   0.0000       2.014426        54.8153 
 248   0.0000       2.029260        55.2190 
 249   0.0000       2.034084        55.3502 
 250   0.0000       2.045271        55.6547 
 251   0.0000       2.053227        55.8712 
 252   0.0000       2.059589        56.0443 
 253   0.0000       2.066898        56.2432 
 254   0.0000       2.070611        56.3442 
 255   0.0000       2.082834        56.6768 
 256   0.0000       2.112493        57.4839 
 257   0.0000       2.134001        58.0691 
 258   0.0000       2.140014        58.2327 
 259   0.0000       2.147485        58.4360 
 260   0.0000       2.162867        58.8546 
 261   0.0000       2.169034        59.0224 
 262   0.0000       2.182789        59.3967 
 263   0.0000       2.202873        59.9432 
 264   0.0000       2.223864        60.5144 
 265   0.0000       2.238666        60.9172 
 266   0.0000       2.248256        61.1782 
 267   0.0000       2.263167        61.5839 
 268   0.0000       2.294714        62.4423 
 269   0.0000       2.306234        62.7558 
 270   0.0000       2.323618        63.2289 
 271   0.0000       2.340561        63.6899 
 272   0.0000       2.346039        63.8390 
 273   0.0000       2.362354        64.2829 
 274   0.0000       2.372135        64.5491 
 275   0.0000       2.404685        65.4348 
 276   0.0000       2.420085        65.8539 
 277   0.0000       2.451267        66.7024 
 278   0.0000       2.458597        66.9018 
 279   0.0000       2.471417        67.2507 
 280   0.0000       2.480898        67.5087 
 281   0.0000       2.487652        67.6925 
 282   0.0000       2.512358        68.3647 
 283   0.0000       2.529118        68.8208 
 284   0.0000       2.541801        69.1659 
 285   0.0000       2.553546        69.4855 
 286   0.0000       2.569402        69.9170 
 287   0.0000       2.585679        70.3599 
 288   0.0000       2.595586        70.6295 
 289   0.0000       2.610403        71.0327 
 290   0.0000       2.615178        71.1626 
 291   0.0000       2.622458        71.3607 
 292   0.0000       2.656184        72.2784 
 293   0.0000       2.675869        72.8141 
 294   0.0000       2.705006        73.6070 
 295   0.0000       2.738130        74.5083 
 296   0.0000       2.742613        74.6303 
 297   0.0000       2.765729        75.2593 
 298   0.0000       2.770330        75.3845 
 299   0.0000       2.807122        76.3857 
 300   0.0000       2.823427        76.8294 
 301   0.0000       2.831921        77.0605 
 302   0.0000       2.891694        78.6870 
 303   0.0000       2.901024        78.9409 
 304   0.0000       2.938461        79.9596 
 305   0.0000       2.965349        80.6912 
 306   0.0000       2.979215        81.0686 
 307   0.0000       2.984529        81.2132 
 308   0.0000       3.011471        81.9463 
 309   0.0000       3.025153        82.3186 
 310   0.0000       3.072469        83.6061 
 311   0.0000       3.086254        83.9812 
 312   0.0000       3.112778        84.7030 
 313   0.0000       3.118946        84.8708 
 314   0.0000       3.142916        85.5231 
 315   0.0000       3.144480        85.5657 
 316   0.0000       3.182437        86.5985 
 317   0.0000       3.217694        87.5579 
 318   0.0000       3.228644        87.8559 
 319   0.0000       3.246710        88.3475 
 320   0.0000       3.360279        91.4379 
 321   0.0000       3.460179        94.1563 

                    ********************************
                    * MULLIKEN POPULATION ANALYSIS *
                    ********************************

-----------------------
MULLIKEN ATOMIC CHARGES
-----------------------
   0 S :    0.110418
   1 C :   -0.120656
   2 C :   -0.055391
   3 C :    0.038530
   4 C :   -0.168077
   5 H :    0.023990
   6 C :    0.028435
   7 H :    0.038576
   8 H :    0.025721
   9 C :   -0.040144
  10 H :    0.034443
  11 H :    0.029523
  12 C :   -0.072108
  13 H :    0.020952
  14 H :    0.033036
  15 H :    0.019417
  16 S :    0.125125
  17 C :   -0.058784
  18 C :   -0.067088
  19 C :   -0.051116
  20 C :   -0.185144
  21 H :    0.006467
  22 C :    0.074260
  23 H :    0.022346
  24 H :    0.006228
  25 C :   -0.050510
  26 H :    0.064142
  27 H :    0.043992
  28 C :   -0.069884
  29 H :    0.017320
  30 H :    0.056407
  31 H :    0.035044
  32 H :    0.053139
  33 H :    0.031389
Sum of atomic charges:   -0.0000000

--------------------------------
MULLIKEN REDUCED ORBITAL CHARGES
--------------------------------
  0 S s       :     5.848503  s :     5.848503
      pz      :     3.062638  p :     9.939646
      px      :     3.228964
      py      :     3.648044
      dz2     :     0.031776  d :     0.101433
      dxz     :     0.018288
      dyz     :     0.017567
      dx2y2   :     0.018824
      dxy     :     0.014978
  1 C s       :     3.190630  s :     3.190630
      pz      :     0.951913  p :     2.897659
      px      :     0.850489
      py      :     1.095256
      dz2     :     0.009564  d :     0.032367
      dxz     :     0.007700
      dyz     :     0.003341
      dx2y2   :     0.005810
      dxy     :     0.005953
  2 C s       :     3.081442  s :     3.081442
      pz      :     0.973621  p :     2.931157
      px      :     0.944464
      py      :     1.013073
      dz2     :     0.008281  d :     0.042791
      dxz     :     0.015071
      dyz     :     0.006950
      dx2y2   :     0.005537
      dxy     :     0.006952
  3 C s       :     3.188689  s :     3.188689
      pz      :     0.843878  p :     2.739646
      px      :     0.895393
      py      :     1.000375
      dz2     :     0.009431  d :     0.033134
      dxz     :     0.008571
      dyz     :     0.003503
      dx2y2   :     0.005206
      dxy     :     0.006423
  4 C s       :     3.096436  s :     3.096436
      pz      :     0.936671  p :     3.030365
      px      :     0.991406
      py      :     1.102288
      dz2     :     0.012184  d :     0.041276
      dxz     :     0.010823
      dyz     :     0.005538
      dx2y2   :     0.006396
      dxy     :     0.006336
  5 H s       :     0.952818  s :     0.952818
      pz      :     0.013819  p :     0.023192
      px      :     0.004297
      py      :     0.005076
  6 C s       :     3.006119  s :     3.006119
      pz      :     1.009455  p :     2.931638
      px      :     0.922615
      py      :     0.999568
      dz2     :     0.007935  d :     0.033808
      dxz     :     0.003797
      dyz     :     0.004280
      dx2y2   :     0.009746
      dxy     :     0.008051
  7 H s       :     0.937203  s :     0.937203
      pz      :     0.007344  p :     0.024221
      px      :     0.004008
      py      :     0.012869
  8 H s       :     0.953501  s :     0.953501
      pz      :     0.012705  p :     0.020778
      px      :     0.003962
      py      :     0.004111
  9 C s       :     3.038264  s :     3.038264
      pz      :     1.031396  p :     2.965717
      px      :     0.942341
      py      :     0.991981
      dz2     :     0.008418  d :     0.036162
      dxz     :     0.004666
      dyz     :     0.006961
      dx2y2   :     0.008868
      dxy     :     0.007249
 10 H s       :     0.943026  s :     0.943026
      pz      :     0.013389  p :     0.022530
      px      :     0.004571
      py      :     0.004569
 11 H s       :     0.946490  s :     0.946490
      pz      :     0.007929  p :     0.023987
      px      :     0.004643
      py      :     0.011415
 12 C s       :     3.015325  s :     3.015325
      pz      :     1.046023  p :     3.026864
      px      :     0.955944
      py      :     1.024897
      dz2     :     0.006313  d :     0.029919
      dxz     :     0.007099
      dyz     :     0.002783
      dx2y2   :     0.006476
      dxy     :     0.007248
 13 H s       :     0.955024  s :     0.955024
      pz      :     0.013231  p :     0.024024
      px      :     0.005394
      py      :     0.005400
 14 H s       :     0.943754  s :     0.943754
      pz      :     0.005275  p :     0.023210
      px      :     0.004395
      py      :     0.013540
 15 H s       :     0.954755  s :     0.954755
      pz      :     0.008612  p :     0.025828
      px      :     0.009338
      py      :     0.007878
 16 S s       :     5.831722  s :     5.831722
      pz      :     3.364444  p :     9.918570
      px      :     3.298074
      py      :     3.256051
      dz2     :     0.027941  d :     0.124583
      dxz     :     0.024126
      dyz     :     0.017601
      dx2y2   :     0.032404
      dxy     :     0.022511
 17 C s       :     3.113429  s :     3.113429
      pz      :     0.981958  p :     2.906920
      px      :     0.968735
      py      :     0.956228
      dz2     :     0.007857  d :     0.038434
      dxz     :     0.006565
      dyz     :     0.008144
      dx2y2   :     0.006854
      dxy     :     0.009015
 18 C s       :     3.184612  s :     3.184612
      pz      :     0.987975  p :     2.844209
      px      :     0.935324
      py      :     0.920911
      dz2     :     0.004447  d :     0.038266
      dxz     :     0.006303
      dyz     :     0.008072
      dx2y2   :     0.010081
      dxy     :     0.009363
 19 C s       :     3.077222  s :     3.077222
      pz      :     0.977233  p :     2.928645
      px      :     0.956692
      py      :     0.994719
      dz2     :     0.009315  d :     0.045249
      dxz     :     0.005748
      dyz     :     0.010327
      dx2y2   :     0.009283
      dxy     :     0.010576
 20 C s       :     3.104003  s :     3.104003
      pz      :     1.046703  p :     3.039387
      px      :     1.083438
      py      :     0.909245
      dz2     :     0.009129  d :     0.041754
      dxz     :     0.007609
      dyz     :     0.007749
      dx2y2   :     0.008416
      dxy     :     0.008851
 21 H s       :     0.969424  s :     0.969424
      pz      :     0.009493  p :     0.024109
      px      :     0.009325
      py      :     0.005290
 22 C s       :     2.943946  s :     2.943946
      pz      :     1.006533  p :     2.945621
      px      :     1.020436
      py      :     0.918652
      dz2     :     0.010956  d :     0.036173
      dxz     :     0.002888
      dyz     :     0.005161
      dx2y2   :     0.011068
      dxy     :     0.006098
 23 H s       :     0.955063  s :     0.955063
      pz      :     0.004976  p :     0.022591
      px      :     0.014026
      py      :     0.003588
 24 H s       :     0.968182  s :     0.968182
      pz      :     0.013976  p :     0.025590
      px      :     0.006342
      py      :     0.005272
 25 C s       :     3.092808  s :     3.092808
      pz      :     1.001345  p :     2.922862
      px      :     0.967474
      py      :     0.954044
      dz2     :     0.008377  d :     0.034840
      dxz     :     0.005554
      dyz     :     0.004996
      dx2y2   :     0.007573
      dxy     :     0.008340
 26 H s       :     0.917331  s :     0.917331
      pz      :     0.012529  p :     0.018527
      px      :     0.003051
      py      :     0.002947
 27 H s       :     0.935100  s :     0.935100
      pz      :     0.004887  p :     0.020908
      px      :     0.005935
      py      :     0.010085
 28 C s       :     3.032814  s :     3.032814
      pz      :     1.010499  p :     3.007617
      px      :     0.972560
      py      :     1.024558
      dz2     :     0.008817  d :     0.029453
      dxz     :     0.004478
      dyz     :     0.002470
      dx2y2   :     0.005905
      dxy     :     0.007783
 29 H s       :     0.958141  s :     0.958141
      pz      :     0.014526  p :     0.024540
      px      :     0.004528
      py      :     0.005486
 30 H s       :     0.922032  s :     0.922032
      pz      :     0.005698  p :     0.021562
      px      :     0.005630
      py      :     0.010234
 31 H s       :     0.941829  s :     0.941829
      pz      :     0.006152  p :     0.023126
      px      :     0.005835
      py      :     0.011140
 32 H s       :     0.923427  s :     0.923427
      pz      :     0.014387  p :     0.023434
      px      :     0.003660
      py      :     0.005387
 33 H s       :     0.942294  s :     0.942294
      pz      :     0.007319  p :     0.026318
      px      :     0.009303
      py      :     0.009696


                     *******************************
                     * LOEWDIN POPULATION ANALYSIS *
                     *******************************

----------------------
LOEWDIN ATOMIC CHARGES
----------------------
   0 S :    0.393699
   1 C :   -0.188884
   2 C :   -0.068759
   3 C :   -0.056405
   4 C :   -0.191134
   5 H :    0.034122
   6 C :   -0.030730
   7 H :    0.029865
   8 H :    0.040714
   9 C :   -0.036898
  10 H :    0.025340
  11 H :    0.025747
  12 C :   -0.078967
  13 H :    0.026276
  14 H :    0.026474
  15 H :    0.023027
  16 S :    0.454995
  17 C :   -0.209638
  18 C :   -0.083314
  19 C :   -0.060093
  20 C :   -0.204886
  21 H :    0.026712
  22 C :   -0.039392
  23 H :    0.031565
  24 H :    0.026328
  25 C :   -0.041694
  26 H :    0.042725
  27 H :    0.031429
  28 C :   -0.074599
  29 H :    0.018290
  30 H :    0.038598
  31 H :    0.025065
  32 H :    0.025292
  33 H :    0.019131

-------------------------------
LOEWDIN REDUCED ORBITAL CHARGES
-------------------------------
  0 S s       :     5.528653  s :     5.528653
      pz      :     3.082588  p :     9.953481
      px      :     3.258184
      py      :     3.612708
      dz2     :     0.041597  d :     0.124167
      dxz     :     0.022108
      dyz     :     0.021059
      dx2y2   :     0.022617
      dxy     :     0.016786
  1 C s       :     2.945228  s :     2.945228
      pz      :     1.067872  p :     3.167655
      px      :     1.000420
      py      :     1.099362
      dz2     :     0.023821  d :     0.076001
      dxz     :     0.021436
      dyz     :     0.006019
      dx2y2   :     0.012654
      dxy     :     0.012070
  2 C s       :     2.864239  s :     2.864239
      pz      :     1.057965  p :     3.097845
      px      :     1.047525
      py      :     0.992355
      dz2     :     0.022926  d :     0.106676
      dxz     :     0.042376
      dyz     :     0.014555
      dx2y2   :     0.013398
      dxy     :     0.013421
  3 C s       :     2.878566  s :     2.878566
      pz      :     1.041860  p :     3.091098
      px      :     1.039863
      py      :     1.009375
      dz2     :     0.026123  d :     0.086741
      dxz     :     0.025910
      dyz     :     0.006547
      dx2y2   :     0.014327
      dxy     :     0.013834
  4 C s       :     2.932362  s :     2.932362
      pz      :     0.988788  p :     3.163348
      px      :     1.082820
      py      :     1.091740
      dz2     :     0.028223  d :     0.095424
      dxz     :     0.026740
      dyz     :     0.011932
      dx2y2   :     0.015604
      dxy     :     0.012925
  5 H s       :     0.898082  s :     0.898082
      pz      :     0.039823  p :     0.067796
      px      :     0.013113
      py      :     0.014860
  6 C s       :     2.839956  s :     2.839956
      pz      :     1.057747  p :     3.105879
      px      :     1.004557
      py      :     1.043574
      dz2     :     0.020272  d :     0.084895
      dxz     :     0.009076
      dyz     :     0.010358
      dx2y2   :     0.024146
      dxy     :     0.021042
  7 H s       :     0.897374  s :     0.897374
      pz      :     0.020249  p :     0.072761
      px      :     0.014035
      py      :     0.038477
  8 H s       :     0.902657  s :     0.902657
      pz      :     0.034584  p :     0.056628
      px      :     0.011171
      py      :     0.010873
  9 C s       :     2.834964  s :     2.834964
      pz      :     1.067849  p :     3.114927
      px      :     1.008588
      py      :     1.038489
      dz2     :     0.021667  d :     0.087007
      dxz     :     0.009080
      dyz     :     0.016653
      dx2y2   :     0.020835
      dxy     :     0.018772
 10 H s       :     0.909064  s :     0.909064
      pz      :     0.037640  p :     0.065596
      px      :     0.014167
      py      :     0.013790
 11 H s       :     0.901877  s :     0.901877
      pz      :     0.022444  p :     0.072376
      px      :     0.015059
      py      :     0.034874
 12 C s       :     2.829097  s :     2.829097
      pz      :     1.082101  p :     3.173684
      px      :     1.022321
      py      :     1.069262
      dz2     :     0.016787  d :     0.076186
      dxz     :     0.016183
      dyz     :     0.006737
      dx2y2   :     0.019190
      dxy     :     0.017289
 13 H s       :     0.909321  s :     0.909321
      pz      :     0.035024  p :     0.064403
      px      :     0.014822
      py      :     0.014557
 14 H s       :     0.909249  s :     0.909249
      pz      :     0.014204  p :     0.064278
      px      :     0.013449
      py      :     0.036624
 15 H s       :     0.904049  s :     0.904049
      pz      :     0.023006  p :     0.072925
      px      :     0.028346
      py      :     0.021573
 16 S s       :     5.464096  s :     5.464096
      pz      :     3.365954  p :     9.924706
      px      :     3.279178
      py      :     3.279574
      dz2     :     0.034114  d :     0.156203
      dxz     :     0.032670
      dyz     :     0.020263
      dx2y2   :     0.040407
      dxy     :     0.028749
 17 C s       :     2.896577  s :     2.896577
      pz      :     1.069445  p :     3.219486
      px      :     1.059482
      py      :     1.090559
      dz2     :     0.017974  d :     0.093574
      dxz     :     0.015066
      dyz     :     0.020577
      dx2y2   :     0.018416
      dxy     :     0.021540
 18 C s       :     2.851309  s :     2.851309
      pz      :     1.036847  p :     3.130556
      px      :     1.031379
      py      :     1.062331
      dz2     :     0.010247  d :     0.101449
      dxz     :     0.015991
      dyz     :     0.021335
      dx2y2   :     0.028245
      dxy     :     0.025631
 19 C s       :     2.857450  s :     2.857450
      pz      :     1.024551  p :     3.090072
      px      :     1.027143
      py      :     1.038378
      dz2     :     0.022528  d :     0.112572
      dxz     :     0.014597
      dyz     :     0.026191
      dx2y2   :     0.022533
      dxy     :     0.026723
 20 C s       :     2.924578  s :     2.924578
      pz      :     1.088121  p :     3.181996
      px      :     1.072254
      py      :     1.021621
      dz2     :     0.021125  d :     0.098311
      dxz     :     0.018310
      dyz     :     0.019865
      dx2y2   :     0.019444
      dxy     :     0.019567
 21 H s       :     0.902301  s :     0.902301
      pz      :     0.028258  p :     0.070987
      px      :     0.026860
      py      :     0.015869
 22 C s       :     2.830695  s :     2.830695
      pz      :     1.061135  p :     3.120324
      px      :     1.051901
      py      :     1.007288
      dz2     :     0.026127  d :     0.088374
      dxz     :     0.006586
      dyz     :     0.013325
      dx2y2   :     0.028106
      dxy     :     0.014230
 23 H s       :     0.903493  s :     0.903493
      pz      :     0.013654  p :     0.064942
      px      :     0.038862
      py      :     0.012426
 24 H s       :     0.897896  s :     0.897896
      pz      :     0.041000  p :     0.075776
      px      :     0.017922
      py      :     0.016854
 25 C s       :     2.860929  s :     2.860929
      pz      :     1.039442  p :     3.096756
      px      :     1.037435
      py      :     1.019879
      dz2     :     0.021010  d :     0.084009
      dxz     :     0.012227
      dyz     :     0.011723
      dx2y2   :     0.019577
      dxy     :     0.019471
 26 H s       :     0.905354  s :     0.905354
      pz      :     0.034990  p :     0.051921
      px      :     0.008825
      py      :     0.008106
 27 H s       :     0.906652  s :     0.906652
      pz      :     0.014060  p :     0.061918
      px      :     0.018007
      py      :     0.029852
 28 C s       :     2.837553  s :     2.837553
      pz      :     1.071140  p :     3.161819
      px      :     1.031610
      py      :     1.059069
      dz2     :     0.022596  d :     0.075228
      dxz     :     0.010808
      dyz     :     0.006702
      dx2y2   :     0.016353
      dxy     :     0.018769
 29 H s       :     0.912234  s :     0.912234
      pz      :     0.040752  p :     0.069476
      px      :     0.014287
      py      :     0.014437
 30 H s       :     0.902978  s :     0.902978
      pz      :     0.013460  p :     0.058425
      px      :     0.017073
      py      :     0.027891
 31 H s       :     0.909739  s :     0.909739
      pz      :     0.016243  p :     0.065196
      px      :     0.017567
      py      :     0.031386
 32 H s       :     0.899595  s :     0.899595
      pz      :     0.042880  p :     0.075113
      px      :     0.014426
      py      :     0.017807
 33 H s       :     0.897093  s :     0.897093
      pz      :     0.025463  p :     0.083776
      px      :     0.030006
      py      :     0.028306


                      *****************************
                      * MAYER POPULATION ANALYSIS *
                      *****************************

  NA   - Mulliken gross atomic population
  ZA   - Total nuclear charge
  QA   - Mulliken gross atomic charge
  VA   - Mayer's total valence
  BVA  - Mayer's bonded valence
  FA   - Mayer's free valence

  ATOM       NA         ZA         QA         VA         BVA        FA
  0 S     15.8896    16.0000     0.1104     2.4953     2.4953     0.0000
  1 C      6.1207     6.0000    -0.1207     3.8443     3.8443     0.0000
  2 C      6.0554     6.0000    -0.0554     3.9801     3.9801    -0.0000
  3 C      5.9615     6.0000     0.0385     3.9031     3.9031    -0.0000
  4 C      6.1681     6.0000    -0.1681     3.9111     3.9111     0.0000
  5 H      0.9760     1.0000     0.0240     1.0001     1.0001    -0.0000
  6 C      5.9716     6.0000     0.0284     3.9513     3.9513     0.0000
  7 H      0.9614     1.0000     0.0386     0.9900     0.9900     0.0000
  8 H      0.9743     1.0000     0.0257     0.9858     0.9858     0.0000
  9 C      6.0401     6.0000    -0.0401     4.0583     4.0583     0.0000
 10 H      0.9656     1.0000     0.0344     0.9785     0.9785     0.0000
 11 H      0.9705     1.0000     0.0295     0.9815     0.9815     0.0000
 12 C      6.0721     6.0000    -0.0721     3.9985     3.9985     0.0000
 13 H      0.9790     1.0000     0.0210     0.9845     0.9845    -0.0000
 14 H      0.9670     1.0000     0.0330     0.9913     0.9913    -0.0000
 15 H      0.9806     1.0000     0.0194     0.9856     0.9856     0.0000
 16 S     15.8749    16.0000     0.1251     2.5685     2.5685    -0.0000
 17 C      6.0588     6.0000    -0.0588     3.8341     3.8341    -0.0000
 18 C      6.0671     6.0000    -0.0671     3.9757     3.9757     0.0000
 19 C      6.0511     6.0000    -0.0511     3.9641     3.9641    -0.0000
 20 C      6.1851     6.0000    -0.1851     3.8919     3.8919    -0.0000
 21 H      0.9935     1.0000     0.0065     0.9975     0.9975     0.0000
 22 C      5.9257     6.0000     0.0743     3.9331     3.9331    -0.0000
 23 H      0.9777     1.0000     0.0223     0.9963     0.9963    -0.0000
 24 H      0.9938     1.0000     0.0062     0.9908     0.9908     0.0000
 25 C      6.0505     6.0000    -0.0505     4.0337     4.0337     0.0000
 26 H      0.9359     1.0000     0.0641     0.9789     0.9789     0.0000
 27 H      0.9560     1.0000     0.0440     0.9749     0.9749     0.0000
 28 C      6.0699     6.0000    -0.0699     3.9840     3.9840    -0.0000
 29 H      0.9827     1.0000     0.0173     0.9906     0.9906    -0.0000
 30 H      0.9436     1.0000     0.0564     0.9906     0.9906     0.0000
 31 H      0.9650     1.0000     0.0350     0.9843     0.9843     0.0000
 32 H      0.9469     1.0000     0.0531     1.0032     1.0032    -0.0000
 33 H      0.9686     1.0000     0.0314     1.0007     1.0007    -0.0000

  Mayer bond orders larger than 0.100000
B(  0-S ,  1-C ) :   1.1627 B(  0-S ,  4-C ) :   1.1414 B(  1-C ,  2-C ) :   1.5722 
B(  1-C ,  4-C ) :   0.1048 B(  1-C , 32-H ) :   0.9656 B(  2-C ,  3-C ) :   1.2506 
B(  2-C ,  6-C ) :   1.0357 B(  3-C ,  4-C ) :   1.5788 B(  3-C ,  5-H ) :   0.9828 
B(  4-C , 20-C ) :   1.0271 B(  6-C ,  7-H ) :   0.9466 B(  6-C ,  8-H ) :   0.9439 
B(  6-C ,  9-C ) :   1.0432 B(  9-C , 10-H ) :   0.9617 B(  9-C , 11-H ) :   0.9609 
B(  9-C , 12-C ) :   1.0764 B( 12-C , 13-H ) :   0.9778 B( 12-C , 14-H ) :   0.9740 
B( 12-C , 15-H ) :   0.9721 B( 16-S , 17-C ) :   1.1920 B( 16-S , 20-C ) :   1.1959 
B( 17-C , 18-C ) :   1.5422 B( 17-C , 20-C ) :   0.1091 B( 17-C , 33-H ) :   0.9793 
B( 18-C , 19-C ) :   1.3024 B( 18-C , 21-H ) :   0.9952 B( 19-C , 20-C ) :   1.5050 
B( 19-C , 22-C ) :   1.0295 B( 22-C , 23-H ) :   0.9259 B( 22-C , 24-H ) :   0.9293 
B( 22-C , 25-C ) :   1.0481 B( 25-C , 26-H ) :   0.9547 B( 25-C , 27-H ) :   0.9508 
B( 25-C , 28-C ) :   1.0705 B( 28-C , 29-H ) :   0.9741 B( 28-C , 30-H ) :   0.9699 
B( 28-C , 31-H ) :   0.9698 

-------
TIMINGS
-------

Total SCF time: 0 days 0 hours 0 min 19 sec 

Total time                  ....      19.365 sec
Sum of individual times     ....      18.506 sec  ( 95.6%)

Fock matrix formation       ....      16.831 sec  ( 86.9%)
  XC integration            ....       1.457 sec  (  8.7% of F)
    Basis function eval.    ....       0.142 sec  (  9.7% of XC)
    Density eval.           ....       0.103 sec  (  7.1% of XC)
    XC-Functional eval.     ....       0.119 sec  (  8.2% of XC)
    XC-Potential eval.      ....       0.121 sec  (  8.3% of XC)
Diagonalization             ....       0.141 sec  (  0.7%)
Density matrix formation    ....       0.026 sec  (  0.1%)
Population analysis         ....       0.056 sec  (  0.3%)
Initial guess               ....       0.166 sec  (  0.9%)
Orbital Transformation      ....       0.000 sec  (  0.0%)
Orbital Orthonormalization  ....       0.000 sec  (  0.0%)
DIIS solution               ....       0.165 sec  (  0.8%)
SOSCF solution              ....       0.123 sec  (  0.6%)
Grid generation             ....       0.999 sec  (  5.2%)


-------------------------------------------------------------------------------
                          DFT DISPERSION CORRECTION                            
                                                                               
                              DFTD3 V3.1  Rev 1                                
                              USING zero damping                               
-------------------------------------------------------------------------------
The omegaB97X-D3 functional is recognized. Fit by Chai et al.
Active option DFTDOPT                   ...         3   

molecular C6(AA) [au] = 14167.079167 


            DFT-D V3
 parameters
 s6 scaling factor         :     1.0000 
 rs6 scaling factor        :     1.2810 
 s8 scaling factor         :     1.0000 
 rs8 scaling factor        :     1.0940 
 Damping factor alpha6     :    14.0000 
 Damping factor alpha8     :    16.0000 
 ad hoc parameters k1-k3   :    16.0000     1.3333    -4.0000 

 Edisp/kcal,au: -8.867620628572  -0.014131451475 
 E6   /kcal   :  -4.031890253 
 E8   /kcal   :  -4.835730376 
 % E8         :  54.532445379 

-------------------------   ----------------
Dispersion correction           -0.014131451
-------------------------   ----------------


-------------------------   --------------------
FINAL SINGLE POINT ENERGY     -1339.848941397678
-------------------------   --------------------


                            ***************************************
                            *     ORCA property calculations      *
                            ***************************************

                                    ---------------------
                                    Active property flags
                                    ---------------------
   (+) Dipole Moment


------------------------------------------------------------------------------
                       ORCA ELECTRIC PROPERTIES CALCULATION
------------------------------------------------------------------------------

Dipole Moment Calculation                       ... on
Quadrupole Moment Calculation                   ... off
Polarizability Calculation                      ... off
GBWName                                         ... config_3011.gbw
Electron density file                           ... config_3011.scfp
The origin for moment calculation is the CENTER OF MASS  = (-224.287456, 47.280676 -27.973239)

-------------
DIPOLE MOMENT
-------------
                                X             Y             Z
Electronic contribution:    -15.88847     -14.90709      -4.96856
Nuclear contribution   :     16.26013      15.18614       5.24586
                        -----------------------------------------
Total Dipole Moment    :      0.37167       0.27904       0.27730
                        -----------------------------------------
Magnitude (a.u.)       :      0.54120
Magnitude (Debye)      :      1.37562



--------------------
Rotational spectrum 
--------------------
 
Rotational constants in cm-1:     0.020967     0.007253     0.006616 
Rotational constants in MHz :   628.570846   217.432936   198.344216 

 Dipole components along the rotational axes: 
x,y,z [a.u.] :     0.195211     0.390629     0.319688 
x,y,z [Debye]:     0.496186     0.992900     0.812584 

 

Timings for individual modules:

Sum of individual times         ...       20.538 sec (=   0.342 min)
GTO integral calculation        ...        0.791 sec (=   0.013 min)   3.9 %
SCF iterations                  ...       19.747 sec (=   0.329 min)  96.1 %
                             ****ORCA TERMINATED NORMALLY****
TOTAL RUN TIME: 0 days 0 hours 0 minutes 21 seconds 222 msec
