
                                 *****************
                                 * O   R   C   A *
                                 *****************

           --- An Ab Initio, DFT and Semiempirical electronic structure package ---

                  #######################################################
                  #                        -***-                        #
                  #          Department of theory and spectroscopy      #
                  #               Directorship: Frank Neese             #
                  #        Max Planck Institute fuer Kohlenforschung    #
                  #                Kaiser Wilhelm Platz 1               #
                  #                 D-45470 Muelheim/Ruhr               #
                  #                      Germany                        #
                  #                                                     #
                  #                  All rights reserved                #
                  #                        -***-                        #
                  #######################################################


                         Program Version 4.2.1 -  RELEASE  -


 With contributions from (in alphabetic order):
   Daniel Aravena         : Magnetic Suceptibility
   Michael Atanasov       : Ab Initio Ligand Field Theory (pilot matlab implementation)
   Alexander A. Auer      : GIAO ZORA, VPT2
   Ute Becker             : Parallelization
   Giovanni Bistoni       : ED, misc. LED, open-shell LED, HFLD
   Martin Brehm           : Molecular dynamics
   Dmytro Bykov           : SCF Hessian
   Vijay G. Chilkuri      : MRCI spin determinant printing, contributions to CSF-ICE
   Dipayan Datta          : RHF DLPNO-CCSD density
   Achintya Kumar Dutta   : EOM-CC, STEOM-CC
   Dmitry Ganyushin       : Spin-Orbit,Spin-Spin,Magnetic field MRCI
   Miquel Garcia          : C-PCM Hessian, Gaussian charge scheme
   Yang Guo               : DLPNO-NEVPT2, CIM, IAO-localization
   Andreas Hansen         : Spin unrestricted coupled pair/coupled cluster methods
   Benjamin Helmich-Paris : CASSCF linear response (MC-RPA)
   Lee Huntington         : MR-EOM, pCC
   Robert Izsak           : Overlap fitted RIJCOSX, COSX-SCS-MP3, EOM
   Christian Kollmar      : KDIIS, OOCD, Brueckner-CCSD(T), CCSD density
   Simone Kossmann        : Meta GGA functionals, TD-DFT gradient, OOMP2, MP2 Hessian
   Martin Krupicka        : AUTO-CI
   Lucas Lang             : DCDCAS
   Dagmar Lenk            : GEPOL surface, SMD
   Dimitrios Liakos       : Extrapolation schemes; Compound Job, initial MDCI parallelization
   Dimitrios Manganas     : Further ROCIS development; embedding schemes
   Dimitrios Pantazis     : SARC Basis sets
   Taras Petrenko         : DFT Hessian,TD-DFT gradient, ASA, ECA, R-Raman, ABS, FL, XAS/XES, NRVS
   Peter Pinski           : DLPNO-MP2, DLPNO-MP2 Gradient
   Christoph Reimann      : Effective Core Potentials
   Marius Retegan         : Local ZFS, SOC
   Christoph Riplinger    : Optimizer, TS searches, QM/MM, DLPNO-CCSD(T), (RO)-DLPNO pert. Triples
   Tobias Risthaus        : Range-separated hybrids, TD-DFT gradient, RPA, STAB
   Michael Roemelt        : Original ROCIS implementation
   Masaaki Saitow         : Open-shell DLPNO-CCSD energy and density
   Barbara Sandhoefer     : DKH picture change effects
   Avijit Sen             : IP-ROCIS
   Kantharuban Sivalingam : CASSCF convergence, NEVPT2, FIC-MRCI
   Bernardo de Souza      : ESD, SOC TD-DFT
   Georgi Stoychev        : AutoAux, RI-MP2 NMR
   Willem Van den Heuvel  : Paramagnetic NMR
   Boris Wezisla          : Elementary symmetry handling
   Frank Wennmohs         : Technical directorship


 We gratefully acknowledge several colleagues who have allowed us to
 interface, adapt or use parts of their codes:
   Stefan Grimme, W. Hujo, H. Kruse,             : VdW corrections, initial TS optimization,
                  C. Bannwarth                     DFT functionals, gCP, sTDA/sTD-DF
   Ed Valeev, F. Pavosevic, A. Kumar             : LibInt (2-el integral package), F12 methods
   Garnet Chan, S. Sharma, J. Yang, R. Olivares  : DMRG
   Ulf Ekstrom                                   : XCFun DFT Library
   Mihaly Kallay                                 : mrcc  (arbitrary order and MRCC methods)
   Andreas Klamt, Michael Diedenhofen            : otool_cosmo (COSMO solvation model)
   Jiri Pittner, Ondrej Demel                    : Mk-CCSD
   Frank Weinhold                                : gennbo (NPA and NBO analysis)
   Christopher J. Cramer and Donald G. Truhlar   : smd solvation model
   Lars Goerigk                                  : TD-DFT with DH, B97 family of functionals
   V. Asgeirsson, H. Jonsson                     : NEB implementation
   FAccTs GmbH                                   : IRC, NEB, NEB-TS, Multilevel, MM, QM/MM, CI optimization
   S Lehtola, MJT Oliveira, MAL Marques          : LibXC Library


 Your calculation uses the libint2 library for the computation of 2-el integrals
 For citations please refer to: http://libint.valeyev.net

 Your ORCA version has been built with support for libXC version: 4.2.3
 For citations please refer to: https://tddft.org/programs/libxc/

 This ORCA versions uses:
   CBLAS   interface :  Fast vector & matrix operations
   LAPACKE interface :  Fast linear algebra routines
   SCALAPACK package :  Parallel linear algebra routines


Your calculation utilizes the atom-pairwise dispersion correction
with the zero-damping scheme (D30)
Cite in your paper:
S.Grimme, J.Antony, S.Ehrlich and H.Krieg, J.Chem.Phys., 132, (2010), 154104 
   

XCFun DFT library Copyright 2009-2010 Ulf Ekstrom and contributors.
See http://admol.org/xcfun for more information. This is free soft-
ware; see the source code for copying conditions. There is ABSOLUTELY
NO WARRANTY; not even for MERCHANTABILITY or FITNESS FOR A PARTICULAR
PURPOSE. For details see the documentation. Scientific users of this 
library should cite U. Ekstrom, L. Visscher, R. Bast, A. J. Thorvald-
sen and K. Ruud; J.Chem.Theor.Comp. 2010, DOI: 10.1021/ct100117s
XCFun Version 0.99 
----- Orbital basis set information -----
Your calculation utilizes the basis: def2-SVP
   F. Weigend and R. Ahlrichs, Phys. Chem. Chem. Phys. 7, 3297 (2005).

================================================================================
                                        WARNINGS
                       Please study these warnings very carefully!
================================================================================


INFO   : the flag for use of LIBINT has been found!

================================================================================
                                       INPUT FILE
================================================================================
NAME = config_4047.inp
|  1> ! wB97X-D3 SP def2-SVP
|  2> %pal
|  3> nprocs 24
|  4> end
|  5> 
|  6> * xyz 0 1
|  7> S 	 -131.101 	 56.707 	 -64.7563 	 
|  8> C 	 -130.064 	 57.476 	 -65.848 	 
|  9> C 	 -128.755 	 57.2534 	 -65.5664 	 
| 10> C 	 -128.602 	 56.3804 	 -64.4714 	 
| 11> C 	 -129.728 	 56.0159 	 -63.8064 	 
| 12> H 	 -127.684 	 55.9773 	 -64.1831 	 
| 13> C 	 -127.468 	 57.6747 	 -66.3394 	 
| 14> H 	 -126.744 	 56.8212 	 -66.1778 	 
| 15> H 	 -126.987 	 58.439 	 -65.7764 	 
| 16> C 	 -127.519 	 57.9374 	 -67.8029 	 
| 17> H 	 -128.33 	 58.5983 	 -68.0467 	 
| 18> H 	 -126.574 	 58.3995 	 -68.0613 	 
| 19> C 	 -127.881 	 56.6634 	 -68.5306 	 
| 20> H 	 -128.906 	 56.4176 	 -68.5039 	 
| 21> H 	 -127.632 	 56.727 	 -69.5751 	 
| 22> H 	 -127.289 	 55.8269 	 -68.0551 	 
| 23> S 	 -131.019 	 56.0516 	 -61.292 	 
| 24> C 	 -130.583 	 54.8489 	 -60.0916 	 
| 25> C 	 -129.643 	 53.9552 	 -60.6415 	 
| 26> C 	 -129.278 	 54.2414 	 -61.9752 	 
| 27> C 	 -129.869 	 55.3655 	 -62.4699 	 
| 28> H 	 -129.26 	 53.201 	 -59.9916 	 
| 29> C 	 -128.327 	 53.3034 	 -62.6766 	 
| 30> H 	 -128.029 	 52.6049 	 -61.9661 	 
| 31> H 	 -127.477 	 53.8738 	 -63.0155 	 
| 32> C 	 -128.92 	 52.6183 	 -63.9036 	 
| 33> H 	 -129.393 	 53.3164 	 -64.6249 	 
| 34> H 	 -129.829 	 52.0115 	 -63.7026 	 
| 35> C 	 -127.823 	 51.9259 	 -64.6841 	 
| 36> H 	 -128.161 	 51.6193 	 -65.682 	 
| 37> H 	 -127.494 	 51.079 	 -64.1058 	 
| 38> H 	 -126.964 	 52.5729 	 -64.8126 	 
| 39> H 	 -130.387 	 57.9242 	 -66.7945 	 
| 40> H 	 -131.146 	 54.7258 	 -59.1261 	 
| 41> *
| 42> 
| 43>                          ****END OF INPUT****
================================================================================

                       ****************************
                       * Single Point Calculation *
                       ****************************

---------------------------------
CARTESIAN COORDINATES (ANGSTROEM)
---------------------------------
  S    -131.101000   56.707000  -64.756300
  C    -130.064000   57.476000  -65.848000
  C    -128.755000   57.253400  -65.566400
  C    -128.602000   56.380400  -64.471400
  C    -129.728000   56.015900  -63.806400
  H    -127.684000   55.977300  -64.183100
  C    -127.468000   57.674700  -66.339400
  H    -126.744000   56.821200  -66.177800
  H    -126.987000   58.439000  -65.776400
  C    -127.519000   57.937400  -67.802900
  H    -128.330000   58.598300  -68.046700
  H    -126.574000   58.399500  -68.061300
  C    -127.881000   56.663400  -68.530600
  H    -128.906000   56.417600  -68.503900
  H    -127.632000   56.727000  -69.575100
  H    -127.289000   55.826900  -68.055100
  S    -131.019000   56.051600  -61.292000
  C    -130.583000   54.848900  -60.091600
  C    -129.643000   53.955200  -60.641500
  C    -129.278000   54.241400  -61.975200
  C    -129.869000   55.365500  -62.469900
  H    -129.260000   53.201000  -59.991600
  C    -128.327000   53.303400  -62.676600
  H    -128.029000   52.604900  -61.966100
  H    -127.477000   53.873800  -63.015500
  C    -128.920000   52.618300  -63.903600
  H    -129.393000   53.316400  -64.624900
  H    -129.829000   52.011500  -63.702600
  C    -127.823000   51.925900  -64.684100
  H    -128.161000   51.619300  -65.682000
  H    -127.494000   51.079000  -64.105800
  H    -126.964000   52.572900  -64.812600
  H    -130.387000   57.924200  -66.794500
  H    -131.146000   54.725800  -59.126100

----------------------------
CARTESIAN COORDINATES (A.U.)
----------------------------
  NO LB      ZA    FRAG     MASS         X           Y           Z
   0 S    16.0000    0    32.060  -247.744986  107.160700  -122.371672
   1 C     6.0000    0    12.011  -245.785340  108.613899  -124.434686
   2 C     6.0000    0    12.011  -243.311688  108.193246  -123.902540
   3 C     6.0000    0    12.011  -243.022560  106.543515  -121.833289
   4 C     6.0000    0    12.011  -245.150392  105.854710  -120.576622
   5 H     1.0000    0     1.008  -241.287792  105.781767  -121.288481
   6 C     6.0000    0    12.011  -240.879611  108.989388  -125.363298
   7 H     1.0000    0     1.008  -239.511449  107.376507  -125.057918
   8 H     1.0000    0     1.008  -239.970653  110.433706  -124.299382
   9 C     6.0000    0    12.011  -240.975987  109.485819  -128.128912
  10 H     1.0000    0     1.008  -242.508555  110.734739  -128.589627
  11 H     1.0000    0     1.008  -239.190196  110.359061  -128.617217
  12 C     6.0000    0    12.011  -241.660068  107.078308  -129.504066
  13 H     1.0000    0     1.008  -243.597037  106.613813  -129.453610
  14 H     1.0000    0     1.008  -241.189526  107.198494  -131.477885
  15 H     1.0000    0     1.008  -240.541350  105.497552  -128.605501
  16 S    16.0000    0    32.060  -247.590028  105.922173  -115.825094
  17 C     6.0000    0    12.011  -246.766108  103.649400  -113.556667
  18 C     6.0000    0    12.011  -244.989765  101.960552  -114.595827
  19 C     6.0000    0    12.011  -244.300015  102.501391  -117.116155
  20 C     6.0000    0    12.011  -245.416843  104.625632  -118.051003
  21 H     1.0000    0     1.008  -244.266000  100.535320  -113.367694
  22 C     6.0000    0    12.011  -242.502886  100.728828  -118.441609
  23 H     1.0000    0     1.008  -241.939747   99.408854  -117.098959
  24 H     1.0000    0     1.008  -240.896618  101.806728  -119.082037
  25 C     6.0000    0    12.011  -243.623493   99.434177  -120.760303
  26 H     1.0000    0     1.008  -244.517334  100.753394  -122.123362
  27 H     1.0000    0     1.008  -245.341254   98.287491  -120.380468
  28 C     6.0000    0    12.011  -241.550464   98.125730  -122.235234
  29 H     1.0000    0     1.008  -242.189191   97.546340  -124.120992
  30 H     1.0000    0     1.008  -240.928744   96.525321  -121.142406
  31 H     1.0000    0     1.008  -239.927189   99.348383  -122.478064
  32 H     1.0000    0     1.008  -246.395721  109.460875  -126.223312
  33 H     1.0000    0     1.008  -247.830024  103.416774  -111.732136

--------------------------------
INTERNAL COORDINATES (ANGSTROEM)
--------------------------------
 S      0   0   0     0.000000000000     0.00000000     0.00000000
 C      1   0   0     1.690721411114     0.00000000     0.00000000
 C      2   1   0     1.357324692179   112.51693907     0.00000000
 C      3   2   1     1.408745186327   111.56966983     2.96001775
 C      4   3   2     1.357557089039   117.19756292   353.77326770
 H      4   3   2     1.043230799009   123.35503078   170.98878428
 C      3   2   1     1.559292047693   130.45339156   175.49844209
 H      7   3   2     1.130819530252   104.69482244   214.54186532
 H      7   3   2     1.064182545431   107.74871287   108.51049043
 C      7   3   2     1.487764947833   120.46864743   335.14391180
 H     10   7   3     1.074219833181   110.96321131    49.21006823
 H     10   7   3     1.083204491313   106.26509486   168.77003475
 C     10   7   3     1.511180760200   109.45348700   295.95191604
 H     13  10   7     1.054398183800   114.65828840    78.44195116
 H     13  10   7     1.075651528145   111.24144577   197.74338069
 H     13  10   7     1.129732933042   107.21875420   317.24574228
 S      5   4   3     2.826687610968   144.20922365   239.59808655
 C     17   5   4     1.754292863236   119.11077836   279.17904395
 C     18  17   5     1.408790154707   109.49047191   356.74118151
 C     19  18  17     1.412052098897   114.36654954     0.69615819
 C     20  19  18     1.362941634847   113.44720669     2.32035135
 H     19  18  17     1.066713012014   116.76161136   177.05935836
 C     20  19  18     1.508710363191   118.42621774   182.90813395
 H     23  20  19     1.039959854994   106.29546245   355.02620526
 H     23  20  19     1.078290021284   108.30770679   236.70687869
 C     23  20  19     1.525299973776   114.09001476   117.76219266
 H     26  23  20     1.109660443559   113.95656273    51.14627490
 H     26  23  20     1.111255254206   114.69423262   301.28678616
 C     26  23  20     1.513937584579   109.78151772   168.78356542
 H     29  26  23     1.097293019207   111.92770073   193.03007544
 H     29  26  23     1.076991875550   107.70804014    70.41682268
 H     29  26  23     1.083052284056   111.26328730   313.52902926
 H      2   1   3     1.095935440617   124.25656519   167.71981723
 H     18  17   5     1.124416675437   122.55915044   187.95611840

---------------------------
INTERNAL COORDINATES (A.U.)
---------------------------
 S      0   0   0     0.000000000000     0.00000000     0.00000000
 C      1   0   0     3.195000435763     0.00000000     0.00000000
 C      2   1   0     2.564971943028   112.51693907     0.00000000
 C      3   2   1     2.662142594638   111.56966983     2.96001775
 C      4   3   2     2.565411109447   117.19756292   353.77326770
 H      4   3   2     1.971420504598   123.35503078   170.98878428
 C      3   2   1     2.946634932942   130.45339156   175.49844209
 H      7   3   2     2.136939219066   104.69482244   214.54186532
 H      7   3   2     2.011013567364   107.74871287   108.51049043
 C      7   3   2     2.811468303052   120.46864743   335.14391180
 H     10   7   3     2.029981292339   110.96321131    49.21006823
 H     10   7   3     2.046959835615   106.26509486   168.77003475
 C     10   7   3     2.855717775630   109.45348700   295.95191604
 H     13  10   7     1.992523803485   114.65828840    78.44195116
 H     13  10   7     2.032686803727   111.24144577   197.74338069
 H     13  10   7     2.134885847921   107.21875420   317.24574228
 S      5   4   3     5.341665450878   144.20922365   239.59808655
 C     17   5   4     3.315133070208   119.11077836   279.17904395
 C     18  17   5     2.662227572561   109.49047191   356.74118151
 C     19  18  17     2.668391753744   114.36654954     0.69615819
 C     20  19  18     2.575586426380   113.44720669     2.32035135
 H     19  18  17     2.015795456197   116.76161136   177.05935836
 C     20  19  18     2.851049401840   118.42621774   182.90813395
 H     23  20  19     1.965239316212   106.29546245   355.02620526
 H     23  20  19     2.037672833166   108.30770679   236.70687869
 C     23  20  19     2.882399222513   114.09001476   117.76219266
 H     26  23  20     2.096954339972   113.95656273    51.14627490
 H     26  23  20     2.099968095330   114.69423262   301.28678616
 C     26  23  20     2.860927418704   109.78151772   168.78356542
 H     29  26  23     2.073583294964   111.92770073   193.03007544
 H     29  26  23     2.035219693247   107.70804014    70.41682268
 H     29  26  23     2.046672205585   111.26328730   313.52902926
 H      2   1   3     2.071017843224   124.25656519   167.71981723
 H     18  17   5     2.124839576989   122.55915044   187.95611840

---------------------
BASIS SET INFORMATION
---------------------
There are 3 groups of distinct atoms

 Group   1 Type S   : 10s7p1d contracted to 4s3p1d pattern {5311/511/1}
 Group   2 Type C   : 7s4p1d contracted to 3s2p1d pattern {511/31/1}
 Group   3 Type H   : 4s1p contracted to 2s1p pattern {31/1}

Atom   0S    basis set group =>   1
Atom   1C    basis set group =>   2
Atom   2C    basis set group =>   2
Atom   3C    basis set group =>   2
Atom   4C    basis set group =>   2
Atom   5H    basis set group =>   3
Atom   6C    basis set group =>   2
Atom   7H    basis set group =>   3
Atom   8H    basis set group =>   3
Atom   9C    basis set group =>   2
Atom  10H    basis set group =>   3
Atom  11H    basis set group =>   3
Atom  12C    basis set group =>   2
Atom  13H    basis set group =>   3
Atom  14H    basis set group =>   3
Atom  15H    basis set group =>   3
Atom  16S    basis set group =>   1
Atom  17C    basis set group =>   2
Atom  18C    basis set group =>   2
Atom  19C    basis set group =>   2
Atom  20C    basis set group =>   2
Atom  21H    basis set group =>   3
Atom  22C    basis set group =>   2
Atom  23H    basis set group =>   3
Atom  24H    basis set group =>   3
Atom  25C    basis set group =>   2
Atom  26H    basis set group =>   3
Atom  27H    basis set group =>   3
Atom  28C    basis set group =>   2
Atom  29H    basis set group =>   3
Atom  30H    basis set group =>   3
Atom  31H    basis set group =>   3
Atom  32H    basis set group =>   3
Atom  33H    basis set group =>   3


           ************************************************************
           *        Program running with 24 parallel MPI-processes    *
           *              working on a common directory               *
           ************************************************************
------------------------------------------------------------------------------
                           ORCA GTO INTEGRAL CALCULATION
------------------------------------------------------------------------------

                         BASIS SET STATISTICS AND STARTUP INFO

 # of primitive gaussian shells          ...  294
 # of primitive gaussian functions       ...  534
 # of contracted shells                  ...  154
 # of contracted basis functions         ...  322
 Highest angular momentum                ...    2
 Maximum contraction depth               ...    5
 Integral package used                   ... LIBINT
 Integral threshhold            Thresh   ...  1.000e-10
 Primitive cut-off              TCut     ...  1.000e-11


------------------------------ INTEGRAL EVALUATION ----------------------------


 * One electron integrals 
 Pre-screening matrix                    ... done
 Shell pair data                         ... done (   0.003 sec)



           ************************************************************
           *        Program running with 24 parallel MPI-processes    *
           *              working on a common directory               *
           ************************************************************
-------------------------------------------------------------------------------
                                 ORCA SCF
-------------------------------------------------------------------------------

------------
SCF SETTINGS
------------
Hamiltonian:
 Density Functional     Method          .... DFT(GTOs)
 Exchange Functional    Exchange        .... WB97X-D3
 Correlation Functional Correlation     .... WB97X-D3
 Gradients option       PostSCFGGA      .... off
 Hybrid DFT is turned on
   Fraction HF Exchange ScalHFX         ....  0.195728
   Scaling of DF-GGA-X  ScalDFX         ....  0.000000
   Scaling of DF-GGA-C  ScalDFC         ....  1.000000
   Scaling of DF-LDA-C  ScalLDAC        ....  1.000000
   Perturbative correction              ....  0.000000
   Density functional embedding theory  .... OFF
 Long-range corrected/Screened/Range-Separated Hybrid DFT is turned on
   Amount of maximum screened exact exchange              ....  0.804272
   Range separation parameter mu (erf(mu*r12)/r12)        ....  0.250000


General Settings:
 Integral files         IntName         .... config_4047
 Hartree-Fock type      HFTyp           .... RHF
 Total Charge           Charge          ....    0
 Multiplicity           Mult            ....    1
 Number of Electrons    NEL             ....  134
 Basis Dimension        Dim             ....  322
 Nuclear Repulsion      ENuc            ....   1292.2158555582 Eh

Convergence Acceleration:
 DIIS                   CNVDIIS         .... on
   Start iteration      DIISMaxIt       ....    12
   Startup error        DIISStart       ....  0.200000
   # of expansion vecs  DIISMaxEq       ....     5
   Bias factor          DIISBfac        ....   1.050
   Max. coefficient     DIISMaxC        ....  10.000
 Newton-Raphson         CNVNR           .... off
 SOSCF                  CNVSOSCF        .... on
   Start iteration      SOSCFMaxIt      ....   150
   Startup grad/error   SOSCFStart      ....  0.003300
 Level Shifting         CNVShift        .... on
   Level shift para.    LevelShift      ....    0.2500
   Turn off err/grad.   ShiftErr        ....    0.0010
 Zerner damping         CNVZerner       .... off
 Static damping         CNVDamp         .... on
   Fraction old density DampFac         ....    0.7000
   Max. Damping (<1)    DampMax         ....    0.9800
   Min. Damping (>=0)   DampMin         ....    0.0000
   Turn off err/grad.   DampErr         ....    0.1000
 Fernandez-Rico         CNVRico         .... off

SCF Procedure:
 Maximum # iterations   MaxIter         ....   125
 SCF integral mode      SCFMode         .... Direct
   Integral package                     .... LIBINT
 Reset frequency        DirectResetFreq ....    20
 Integral Threshold     Thresh          ....  1.000e-10 Eh
 Primitive CutOff       TCut            ....  1.000e-11 Eh

Convergence Tolerance:
 Convergence Check Mode ConvCheckMode   .... Total+1el-Energy
 Convergence forced     ConvForced      .... 0
 Energy Change          TolE            ....  1.000e-06 Eh
 1-El. energy change                    ....  1.000e-03 Eh
 Orbital Gradient       TolG            ....  5.000e-05
 Orbital Rotation angle TolX            ....  5.000e-05
 DIIS Error             TolErr          ....  1.000e-06


Diagonalization of the overlap matrix:
Smallest eigenvalue                        ... 6.276e-04
Time for diagonalization                   ...    0.014 sec
Threshold for overlap eigenvalues          ... 1.000e-08
Number of eigenvalues below threshold      ... 0
Time for construction of square roots      ...    0.028 sec
Total time needed                          ...    0.042 sec

-------------------
DFT GRID GENERATION
-------------------

General Integration Accuracy     IntAcc      ...  4.340
Radial Grid Type                 RadialGrid  ... Gauss-Chebyshev
Angular Grid (max. acc.)         AngularGrid ... Lebedev-110
Angular grid pruning method      GridPruning ... 3 (G Style)
Weight generation scheme         WeightScheme... Becke
Basis function cutoff            BFCut       ...    1.0000e-10
Integration weight cutoff        WCut        ...    1.0000e-14
Grids for H and He will be reduced by one unit

# of grid points (after initial pruning)     ...  41088 (   0.0 sec)
# of grid points (after weights+screening)   ...  36903 (   0.0 sec)
nearest neighbour list constructed           ...    0.0 sec
Grid point re-assignment to atoms done       ...    0.0 sec
Grid point division into batches done        ...    0.0 sec
Reduced shell lists constructed in    0.1 sec

Total number of grid points                  ...    36903
Total number of batches                      ...      594
Average number of points per batch           ...       62
Average number of grid points per atom       ...     1085
Average number of shells per batch           ...    74.15 (48.15%)
Average number of basis functions per batch  ...   144.38 (44.84%)
Average number of large shells per batch     ...    47.88 (64.57%)
Average number of large basis fcns per batch ...    98.04 (67.90%)
Maximum spatial batch extension              ...  13.83, 17.36, 14.99 au
Average spatial batch extension              ...   0.17,  0.17,  0.16 au

Time for grid setup =    0.150 sec

------------------------------
INITIAL GUESS: MODEL POTENTIAL
------------------------------
Loading Hartree-Fock densities                     ... done
Calculating cut-offs                               ... done
Setting up the integral package                    ... done
Initializing the effective Hamiltonian             ... done
Starting the Coulomb interaction                   ... done (   0.0 sec)
Reading the grid                                   ... done
Mapping shells                                     ... done
Starting the XC term evaluation                    ... done (   0.0 sec)
  promolecular density results
     # of electrons  =    133.982128175
     EX              =   -126.768395559
     EC              =     -4.628148424
     EX+EC           =   -131.396543983
Transforming the Hamiltonian                       ... done (   0.0 sec)
Diagonalizing the Hamiltonian                      ... done (   0.0 sec)
Back transforming the eigenvectors                 ... done (   0.0 sec)
Now organizing SCF variables                       ... done
                      ------------------
                      INITIAL GUESS DONE (   0.3 sec)
                      ------------------
--------------
SCF ITERATIONS
--------------
ITER       Energy         Delta-E        Max-DP      RMS-DP      [F,P]     Damp
               ***  Starting incremental Fock matrix formation  ***
  0  -1339.4021981901   0.000000000000 0.06709276  0.00160943  0.1631282 0.7000
  1  -1339.5988787370  -0.196680546900 0.04500644  0.00116795  0.0980577 0.7000
                               ***Turning on DIIS***
  2  -1339.6936566924  -0.094777955443 0.07829430  0.00218875  0.0503923 0.0000
  3  -1339.8362348015  -0.142578109022 0.04235809  0.00100535  0.0379718 0.0000
  4  -1339.8673279581  -0.031093156657 0.00789168  0.00021157  0.0076430 0.0000
                      *** Initiating the SOSCF procedure ***
                           *** Shutting down DIIS ***
                      *** Re-Reading the Fockian *** 
                      *** Removing any level shift *** 
ITER      Energy       Delta-E        Grad      Rot      Max-DP    RMS-DP
  5  -1339.86829198  -0.0009640220  0.001627  0.001627  0.003077  0.000103
               *** Restarting incremental Fock matrix formation ***
  6  -1339.86847983  -0.0001878464  0.001322  0.003703  0.002513  0.000064
  7  -1339.86854234  -0.0000625181  0.000783  0.004758  0.002648  0.000062
  8  -1339.86855885  -0.0000165034  0.000313  0.000748  0.000775  0.000019
  9  -1339.86856301  -0.0000041661  0.000150  0.000339  0.000291  0.000009
 10  -1339.86856344  -0.0000004282  0.000061  0.000173  0.000145  0.000004
                 **** Energy Check signals convergence ****
              ***Rediagonalizing the Fockian in SOSCF/NRSCF***

               *****************************************************
               *                     SUCCESS                       *
               *           SCF CONVERGED AFTER  11 CYCLES          *
               *****************************************************

Setting up the final grid:

General Integration Accuracy     IntAcc      ...  4.670
Radial Grid Type                 RadialGrid  ... Gauss-Chebyshev
Angular Grid (max. acc.)         AngularGrid ... Lebedev-302
Angular grid pruning method      GridPruning ... 3 (G Style)
Weight generation scheme         WeightScheme... Becke
Basis function cutoff            BFCut       ...    1.0000e-10
Integration weight cutoff        WCut        ...    1.0000e-14
Grids for H and He will be reduced by one unit

# of grid points (after initial pruning)     ... 161752 (   0.0 sec)
# of grid points (after weights+screening)   ... 142358 (   0.1 sec)
nearest neighbour list constructed           ...    0.0 sec
Grid point re-assignment to atoms done       ...    0.0 sec
Grid point division into batches done        ...    0.5 sec
Reduced shell lists constructed in    0.5 sec

Total number of grid points                  ...   142358
Total number of batches                      ...     2242
Average number of points per batch           ...       63
Average number of grid points per atom       ...     4187
Average number of shells per batch           ...    67.38 (43.75%)
Average number of basis functions per batch  ...   131.15 (40.73%)
Average number of large shells per batch     ...    42.06 (62.43%)
Average number of large basis fcns per batch ...    85.85 (65.46%)
Maximum spatial batch extension              ...  12.02, 15.31, 14.18 au
Average spatial batch extension              ...   0.11,  0.11,  0.11 au

Final grid set up in    0.8 sec
Final integration                            ... done (   0.2 sec)
Change in XC energy                          ...     0.007175822
Integrated number of electrons               ...   133.999943138
Previous integrated no of electrons          ...   133.994796200

----------------
TOTAL SCF ENERGY
----------------

Total Energy       :        -1339.86138788 Eh          -36459.48193 eV

Components:
Nuclear Repulsion  :         1292.21585556 Eh           35162.98108 eV
Electronic Energy  :        -2632.07724343 Eh          -71622.46301 eV
One Electron Energy:        -4400.94955487 Eh         -119755.92566 eV
Two Electron Energy:         1768.87231143 Eh           48133.46265 eV

Virial components:
Potential Energy   :        -2671.74036121 Eh          -72701.75131 eV
Kinetic Energy     :         1331.87897334 Eh           36242.26939 eV
Virial Ratio       :            2.00599335


DFT components:
N(Alpha)           :       66.999971569092 electrons
N(Beta)            :       66.999971569092 electrons
N(Total)           :      133.999943138184 electrons
E(XC)              :      -94.326968003855 Eh       
DFET-embed. en.    :        0.000000000000 Eh       

---------------
SCF CONVERGENCE
---------------

  Last Energy change         ...   -2.5601e-07  Tolerance :   1.0000e-06
  Last MAX-Density change    ...    3.5199e-05  Tolerance :   1.0000e-05
  Last RMS-Density change    ...    7.0208e-07  Tolerance :   1.0000e-06
  Last Orbital Gradient      ...    7.8910e-06  Tolerance :   5.0000e-05
  Last Orbital Rotation      ...    2.3408e-05  Tolerance :   5.0000e-05

             **** THE GBW FILE WAS UPDATED (config_4047.gbw) ****
             **** DENSITY FILE WAS UPDATED (config_4047.scfp) ****
             **** ENERGY FILE WAS UPDATED (config_4047.en.tmp) ****
             **** THE GBW FILE WAS UPDATED (config_4047.gbw) ****
             **** DENSITY FILE WAS UPDATED (config_4047.scfp) ****
----------------
ORBITAL ENERGIES
----------------

  NO   OCC          E(Eh)            E(eV) 
   0   2.0000     -88.965914     -2420.8856 
   1   2.0000     -88.963652     -2420.8240 
   2   2.0000     -10.332978      -281.1746 
   3   2.0000     -10.330374      -281.1038 
   4   2.0000     -10.324027      -280.9311 
   5   2.0000     -10.311263      -280.5837 
   6   2.0000     -10.298456      -280.2352 
   7   2.0000     -10.297222      -280.2017 
   8   2.0000     -10.293434      -280.0986 
   9   2.0000     -10.293160      -280.0911 
  10   2.0000     -10.286067      -279.8981 
  11   2.0000     -10.285710      -279.8884 
  12   2.0000     -10.283069      -279.8165 
  13   2.0000     -10.282356      -279.7971 
  14   2.0000     -10.274188      -279.5749 
  15   2.0000     -10.273431      -279.5543 
  16   2.0000      -8.080020      -219.8685 
  17   2.0000      -8.078733      -219.8335 
  18   2.0000      -6.038567      -164.3178 
  19   2.0000      -6.037262      -164.2823 
  20   2.0000      -6.034556      -164.2086 
  21   2.0000      -6.033137      -164.1700 
  22   2.0000      -6.030833      -164.1073 
  23   2.0000      -6.029492      -164.0708 
  24   2.0000      -1.007574       -27.4175 
  25   2.0000      -0.987775       -26.8787 
  26   2.0000      -0.919348       -25.0167 
  27   2.0000      -0.913521       -24.8582 
  28   2.0000      -0.867629       -23.6094 
  29   2.0000      -0.855203       -23.2713 
  30   2.0000      -0.850583       -23.1455 
  31   2.0000      -0.811759       -22.0891 
  32   2.0000      -0.783736       -21.3265 
  33   2.0000      -0.776151       -21.1201 
  34   2.0000      -0.708649       -19.2833 
  35   2.0000      -0.703299       -19.1377 
  36   2.0000      -0.689060       -18.7503 
  37   2.0000      -0.666874       -18.1466 
  38   2.0000      -0.643368       -17.5069 
  39   2.0000      -0.616311       -16.7707 
  40   2.0000      -0.596843       -16.2409 
  41   2.0000      -0.581881       -15.8338 
  42   2.0000      -0.567484       -15.4420 
  43   2.0000      -0.564271       -15.3546 
  44   2.0000      -0.541357       -14.7311 
  45   2.0000      -0.525944       -14.3117 
  46   2.0000      -0.511596       -13.9212 
  47   2.0000      -0.510372       -13.8879 
  48   2.0000      -0.505302       -13.7500 
  49   2.0000      -0.500305       -13.6140 
  50   2.0000      -0.491994       -13.3878 
  51   2.0000      -0.486859       -13.2481 
  52   2.0000      -0.475799       -12.9471 
  53   2.0000      -0.467957       -12.7338 
  54   2.0000      -0.459364       -12.4999 
  55   2.0000      -0.450086       -12.2475 
  56   2.0000      -0.442447       -12.0396 
  57   2.0000      -0.436684       -11.8828 
  58   2.0000      -0.432471       -11.7681 
  59   2.0000      -0.426179       -11.5969 
  60   2.0000      -0.422193       -11.4885 
  61   2.0000      -0.414149       -11.2696 
  62   2.0000      -0.407879       -11.0990 
  63   2.0000      -0.352428        -9.5900 
  64   2.0000      -0.332782        -9.0555 
  65   2.0000      -0.328139        -8.9291 
  66   2.0000      -0.291442        -7.9305 
  67   0.0000       0.029099         0.7918 
  68   0.0000       0.069099         1.8803 
  69   0.0000       0.112841         3.0705 
  70   0.0000       0.119896         3.2625 
  71   0.0000       0.136582         3.7166 
  72   0.0000       0.140283         3.8173 
  73   0.0000       0.147381         4.0104 
  74   0.0000       0.155959         4.2439 
  75   0.0000       0.166620         4.5339 
  76   0.0000       0.169201         4.6042 
  77   0.0000       0.173183         4.7125 
  78   0.0000       0.185171         5.0388 
  79   0.0000       0.193038         5.2528 
  80   0.0000       0.201530         5.4839 
  81   0.0000       0.204388         5.5617 
  82   0.0000       0.213622         5.8129 
  83   0.0000       0.224431         6.1071 
  84   0.0000       0.227470         6.1898 
  85   0.0000       0.232720         6.3326 
  86   0.0000       0.239069         6.5054 
  87   0.0000       0.244348         6.6490 
  88   0.0000       0.247263         6.7284 
  89   0.0000       0.255323         6.9477 
  90   0.0000       0.259308         7.0561 
  91   0.0000       0.266753         7.2587 
  92   0.0000       0.291273         7.9259 
  93   0.0000       0.297355         8.0914 
  94   0.0000       0.308438         8.3930 
  95   0.0000       0.323520         8.8034 
  96   0.0000       0.333425         9.0730 
  97   0.0000       0.333735         9.0814 
  98   0.0000       0.354000         9.6328 
  99   0.0000       0.373100        10.1526 
 100   0.0000       0.392195        10.6722 
 101   0.0000       0.416587        11.3359 
 102   0.0000       0.420145        11.4327 
 103   0.0000       0.423227        11.5166 
 104   0.0000       0.444756        12.1024 
 105   0.0000       0.452934        12.3250 
 106   0.0000       0.467714        12.7271 
 107   0.0000       0.477329        12.9888 
 108   0.0000       0.488404        13.2902 
 109   0.0000       0.489911        13.3312 
 110   0.0000       0.505675        13.7601 
 111   0.0000       0.509594        13.8667 
 112   0.0000       0.522068        14.2062 
 113   0.0000       0.526038        14.3142 
 114   0.0000       0.533114        14.5068 
 115   0.0000       0.533771        14.5247 
 116   0.0000       0.545964        14.8564 
 117   0.0000       0.548750        14.9322 
 118   0.0000       0.554105        15.0780 
 119   0.0000       0.562378        15.3031 
 120   0.0000       0.576183        15.6787 
 121   0.0000       0.595933        16.2162 
 122   0.0000       0.600776        16.3480 
 123   0.0000       0.609216        16.5776 
 124   0.0000       0.611195        16.6315 
 125   0.0000       0.633295        17.2328 
 126   0.0000       0.643138        17.5007 
 127   0.0000       0.651447        17.7268 
 128   0.0000       0.658014        17.9055 
 129   0.0000       0.661214        17.9926 
 130   0.0000       0.682082        18.5604 
 131   0.0000       0.691816        18.8253 
 132   0.0000       0.698584        19.0094 
 133   0.0000       0.713960        19.4279 
 134   0.0000       0.718906        19.5624 
 135   0.0000       0.721801        19.6412 
 136   0.0000       0.724598        19.7173 
 137   0.0000       0.731287        19.8993 
 138   0.0000       0.733939        19.9715 
 139   0.0000       0.737715        20.0743 
 140   0.0000       0.742237        20.1973 
 141   0.0000       0.748412        20.3653 
 142   0.0000       0.757562        20.6143 
 143   0.0000       0.760052        20.6821 
 144   0.0000       0.763421        20.7738 
 145   0.0000       0.772915        21.0321 
 146   0.0000       0.776563        21.1314 
 147   0.0000       0.779235        21.2041 
 148   0.0000       0.781945        21.2778 
 149   0.0000       0.787966        21.4417 
 150   0.0000       0.788997        21.4697 
 151   0.0000       0.793936        21.6041 
 152   0.0000       0.797756        21.7080 
 153   0.0000       0.801146        21.8003 
 154   0.0000       0.804105        21.8808 
 155   0.0000       0.810189        22.0464 
 156   0.0000       0.817495        22.2452 
 157   0.0000       0.819440        22.2981 
 158   0.0000       0.820761        22.3340 
 159   0.0000       0.826856        22.4999 
 160   0.0000       0.829785        22.5796 
 161   0.0000       0.836797        22.7704 
 162   0.0000       0.843615        22.9559 
 163   0.0000       0.854225        23.2447 
 164   0.0000       0.856230        23.2992 
 165   0.0000       0.863703        23.5026 
 166   0.0000       0.873731        23.7754 
 167   0.0000       0.876988        23.8640 
 168   0.0000       0.892747        24.2929 
 169   0.0000       0.900941        24.5159 
 170   0.0000       0.913717        24.8635 
 171   0.0000       0.925043        25.1717 
 172   0.0000       0.934906        25.4401 
 173   0.0000       0.946502        25.7556 
 174   0.0000       0.953994        25.9595 
 175   0.0000       0.962754        26.1979 
 176   0.0000       0.975283        26.5388 
 177   0.0000       0.989717        26.9316 
 178   0.0000       1.032432        28.0939 
 179   0.0000       1.043694        28.4003 
 180   0.0000       1.061189        28.8764 
 181   0.0000       1.084913        29.5220 
 182   0.0000       1.096344        29.8330 
 183   0.0000       1.117817        30.4173 
 184   0.0000       1.122751        30.5516 
 185   0.0000       1.140138        31.0247 
 186   0.0000       1.145008        31.1573 
 187   0.0000       1.150371        31.3032 
 188   0.0000       1.185475        32.2584 
 189   0.0000       1.201997        32.7080 
 190   0.0000       1.211464        32.9656 
 191   0.0000       1.234134        33.5825 
 192   0.0000       1.241031        33.7702 
 193   0.0000       1.269534        34.5458 
 194   0.0000       1.280131        34.8341 
 195   0.0000       1.281577        34.8735 
 196   0.0000       1.312793        35.7229 
 197   0.0000       1.323570        36.0162 
 198   0.0000       1.354105        36.8471 
 199   0.0000       1.384284        37.6683 
 200   0.0000       1.404968        38.2311 
 201   0.0000       1.421129        38.6709 
 202   0.0000       1.424532        38.7635 
 203   0.0000       1.444666        39.3114 
 204   0.0000       1.458762        39.6949 
 205   0.0000       1.475837        40.1596 
 206   0.0000       1.488808        40.5125 
 207   0.0000       1.494775        40.6749 
 208   0.0000       1.523317        41.4516 
 209   0.0000       1.550770        42.1986 
 210   0.0000       1.571745        42.7693 
 211   0.0000       1.636280        44.5254 
 212   0.0000       1.644533        44.7500 
 213   0.0000       1.651162        44.9304 
 214   0.0000       1.654819        45.0299 
 215   0.0000       1.677463        45.6461 
 216   0.0000       1.681923        45.7674 
 217   0.0000       1.700663        46.2774 
 218   0.0000       1.738054        47.2948 
 219   0.0000       1.758879        47.8615 
 220   0.0000       1.777715        48.3741 
 221   0.0000       1.790252        48.7152 
 222   0.0000       1.800657        48.9984 
 223   0.0000       1.815485        49.4019 
 224   0.0000       1.829479        49.7827 
 225   0.0000       1.831439        49.8360 
 226   0.0000       1.841622        50.1131 
 227   0.0000       1.859471        50.5988 
 228   0.0000       1.862814        50.6898 
 229   0.0000       1.876369        51.0586 
 230   0.0000       1.880913        51.1822 
 231   0.0000       1.884425        51.2778 
 232   0.0000       1.894829        51.5609 
 233   0.0000       1.901426        51.7404 
 234   0.0000       1.909166        51.9510 
 235   0.0000       1.914120        52.0859 
 236   0.0000       1.925201        52.3874 
 237   0.0000       1.932275        52.5799 
 238   0.0000       1.935454        52.6664 
 239   0.0000       1.939162        52.7673 
 240   0.0000       1.954093        53.1736 
 241   0.0000       1.961980        53.3882 
 242   0.0000       1.974555        53.7304 
 243   0.0000       1.988686        54.1149 
 244   0.0000       1.994656        54.2774 
 245   0.0000       2.010522        54.7091 
 246   0.0000       2.012297        54.7574 
 247   0.0000       2.028806        55.2066 
 248   0.0000       2.030951        55.2650 
 249   0.0000       2.033851        55.3439 
 250   0.0000       2.046745        55.6948 
 251   0.0000       2.051420        55.8220 
 252   0.0000       2.063491        56.1504 
 253   0.0000       2.081473        56.6397 
 254   0.0000       2.094543        56.9954 
 255   0.0000       2.104835        57.2755 
 256   0.0000       2.107823        57.3568 
 257   0.0000       2.117136        57.6102 
 258   0.0000       2.136638        58.1409 
 259   0.0000       2.154333        58.6224 
 260   0.0000       2.176282        59.2196 
 261   0.0000       2.183866        59.4260 
 262   0.0000       2.194170        59.7064 
 263   0.0000       2.202438        59.9314 
 264   0.0000       2.225271        60.5527 
 265   0.0000       2.243666        61.0533 
 266   0.0000       2.258899        61.4678 
 267   0.0000       2.283555        62.1387 
 268   0.0000       2.300829        62.6087 
 269   0.0000       2.310900        62.8828 
 270   0.0000       2.318649        63.0936 
 271   0.0000       2.356817        64.1323 
 272   0.0000       2.404046        65.4174 
 273   0.0000       2.407306        65.5061 
 274   0.0000       2.417888        65.7941 
 275   0.0000       2.428280        66.0768 
 276   0.0000       2.446159        66.5634 
 277   0.0000       2.454333        66.7858 
 278   0.0000       2.466392        67.1139 
 279   0.0000       2.493795        67.8596 
 280   0.0000       2.498455        67.9864 
 281   0.0000       2.512684        68.3736 
 282   0.0000       2.526515        68.7500 
 283   0.0000       2.544832        69.2484 
 284   0.0000       2.551623        69.4332 
 285   0.0000       2.569719        69.9256 
 286   0.0000       2.590056        70.4790 
 287   0.0000       2.594921        70.6114 
 288   0.0000       2.603731        70.8511 
 289   0.0000       2.651801        72.1592 
 290   0.0000       2.660282        72.3899 
 291   0.0000       2.673861        72.7595 
 292   0.0000       2.704181        73.5845 
 293   0.0000       2.714207        73.8573 
 294   0.0000       2.736750        74.4708 
 295   0.0000       2.760010        75.1037 
 296   0.0000       2.767442        75.3059 
 297   0.0000       2.787094        75.8407 
 298   0.0000       2.792413        75.9854 
 299   0.0000       2.828087        76.9562 
 300   0.0000       2.870837        78.1195 
 301   0.0000       2.881160        78.4003 
 302   0.0000       2.899554        78.9009 
 303   0.0000       2.935087        79.8678 
 304   0.0000       2.961856        80.5962 
 305   0.0000       2.987328        81.2893 
 306   0.0000       3.016764        82.0903 
 307   0.0000       3.025827        82.3369 
 308   0.0000       3.041472        82.7627 
 309   0.0000       3.054345        83.1130 
 310   0.0000       3.068428        83.4962 
 311   0.0000       3.075816        83.6972 
 312   0.0000       3.109603        84.6166 
 313   0.0000       3.127554        85.1051 
 314   0.0000       3.148147        85.6654 
 315   0.0000       3.163085        86.0719 
 316   0.0000       3.189288        86.7849 
 317   0.0000       3.229603        87.8820 
 318   0.0000       3.275734        89.1372 
 319   0.0000       3.301555        89.8399 
 320   0.0000       3.389583        92.2352 
 321   0.0000       3.460012        94.1517 

                    ********************************
                    * MULLIKEN POPULATION ANALYSIS *
                    ********************************

-----------------------
MULLIKEN ATOMIC CHARGES
-----------------------
   0 S :    0.101346
   1 C :   -0.135471
   2 C :   -0.071815
   3 C :    0.038613
   4 C :   -0.146279
   5 H :   -0.023479
   6 C :    0.037590
   7 H :    0.021533
   8 H :    0.030479
   9 C :   -0.027254
  10 H :    0.021541
  11 H :    0.031278
  12 C :   -0.043767
  13 H :    0.027488
  14 H :    0.029265
  15 H :    0.026870
  16 S :    0.104350
  17 C :   -0.127815
  18 C :   -0.040243
  19 C :   -0.038897
  20 C :   -0.144515
  21 H :    0.013771
  22 C :    0.145379
  23 H :   -0.001289
  24 H :    0.017576
  25 C :   -0.116591
  26 H :    0.037756
  27 H :    0.031791
  28 C :   -0.012507
  29 H :    0.034225
  30 H :    0.022105
  31 H :    0.018396
  32 H :    0.054207
  33 H :    0.084362
Sum of atomic charges:   -0.0000000

--------------------------------
MULLIKEN REDUCED ORBITAL CHARGES
--------------------------------
  0 S s       :     5.841867  s :     5.841867
      pz      :     3.187512  p :     9.947644
      px      :     3.322582
      py      :     3.437550
      dz2     :     0.018937  d :     0.109143
      dxz     :     0.034960
      dyz     :     0.015852
      dx2y2   :     0.016846
      dxy     :     0.022547
  1 C s       :     3.172001  s :     3.172001
      pz      :     0.921780  p :     2.926386
      px      :     0.964566
      py      :     1.040040
      dz2     :     0.006162  d :     0.037084
      dxz     :     0.011460
      dyz     :     0.004023
      dx2y2   :     0.005461
      dxy     :     0.009978
  2 C s       :     3.059844  s :     3.059844
      pz      :     1.002254  p :     2.967427
      px      :     0.968501
      py      :     0.996672
      dz2     :     0.008695  d :     0.044545
      dxz     :     0.010021
      dyz     :     0.005784
      dx2y2   :     0.009898
      dxy     :     0.010147
  3 C s       :     3.175935  s :     3.175935
      pz      :     0.940570  p :     2.748490
      px      :     0.845004
      py      :     0.962915
      dz2     :     0.008002  d :     0.036963
      dxz     :     0.008777
      dyz     :     0.005121
      dx2y2   :     0.006918
      dxy     :     0.008145
  4 C s       :     3.074337  s :     3.074337
      pz      :     1.023230  p :     3.028998
      px      :     0.936961
      py      :     1.068807
      dz2     :     0.009107  d :     0.042945
      dxz     :     0.013256
      dyz     :     0.005405
      dx2y2   :     0.005510
      dxy     :     0.009666
  5 H s       :     0.997233  s :     0.997233
      pz      :     0.005529  p :     0.026246
      px      :     0.013792
      py      :     0.006925
  6 C s       :     2.975028  s :     2.975028
      pz      :     0.958929  p :     2.950676
      px      :     0.960109
      py      :     1.031638
      dz2     :     0.008294  d :     0.036706
      dxz     :     0.008776
      dyz     :     0.007886
      dx2y2   :     0.002952
      dxy     :     0.008797
  7 H s       :     0.956519  s :     0.956519
      pz      :     0.003840  p :     0.021948
      px      :     0.007597
      py      :     0.010511
  8 H s       :     0.945029  s :     0.945029
      pz      :     0.006836  p :     0.024493
      px      :     0.006831
      py      :     0.010826
  9 C s       :     3.005906  s :     3.005906
      pz      :     0.967319  p :     2.982781
      px      :     1.000439
      py      :     1.015023
      dz2     :     0.011211  d :     0.038566
      dxz     :     0.004754
      dyz     :     0.008013
      dx2y2   :     0.004599
      dxy     :     0.009989
 10 H s       :     0.954355  s :     0.954355
      pz      :     0.005012  p :     0.024104
      px      :     0.010344
      py      :     0.008748
 11 H s       :     0.945660  s :     0.945660
      pz      :     0.004851  p :     0.023062
      px      :     0.012365
      py      :     0.005846
 12 C s       :     3.004093  s :     3.004093
      pz      :     1.009751  p :     3.010321
      px      :     1.024277
      py      :     0.976293
      dz2     :     0.009125  d :     0.029353
      dxz     :     0.002143
      dyz     :     0.004922
      dx2y2   :     0.006983
      dxy     :     0.006181
 13 H s       :     0.946963  s :     0.946963
      pz      :     0.005766  p :     0.025549
      px      :     0.014645
      py      :     0.005137
 14 H s       :     0.946372  s :     0.946372
      pz      :     0.013719  p :     0.024362
      px      :     0.006086
      py      :     0.004557
 15 H s       :     0.951002  s :     0.951002
      pz      :     0.005996  p :     0.022128
      px      :     0.007063
      py      :     0.009070
 16 S s       :     5.848859  s :     5.848859
      pz      :     3.037885  p :     9.943766
      px      :     3.457102
      py      :     3.448780
      dz2     :     0.016305  d :     0.103024
      dxz     :     0.026822
      dyz     :     0.032774
      dx2y2   :     0.013905
      dxy     :     0.013218
 17 C s       :     3.181518  s :     3.181518
      pz      :     0.929587  p :     2.913050
      px      :     1.009701
      py      :     0.973761
      dz2     :     0.004985  d :     0.033247
      dxz     :     0.007501
      dyz     :     0.008615
      dx2y2   :     0.007657
      dxy     :     0.004489
 18 C s       :     3.186668  s :     3.186668
      pz      :     0.921885  p :     2.819014
      px      :     0.966389
      py      :     0.930740
      dz2     :     0.007975  d :     0.034561
      dxz     :     0.007235
      dyz     :     0.009577
      dx2y2   :     0.004875
      dxy     :     0.004900
 19 C s       :     3.047713  s :     3.047713
      pz      :     0.946209  p :     2.946236
      px      :     1.004938
      py      :     0.995089
      dz2     :     0.010899  d :     0.044949
      dxz     :     0.008695
      dyz     :     0.009029
      dx2y2   :     0.008465
      dxy     :     0.007860
 20 C s       :     3.063439  s :     3.063439
      pz      :     0.976159  p :     3.038354
      px      :     1.028687
      py      :     1.033508
      dz2     :     0.008713  d :     0.042722
      dxz     :     0.007970
      dyz     :     0.011702
      dx2y2   :     0.008755
      dxy     :     0.005582
 21 H s       :     0.961781  s :     0.961781
      pz      :     0.008079  p :     0.024448
      px      :     0.006182
      py      :     0.010187
 22 C s       :     2.880489  s :     2.880489
      pz      :     0.947313  p :     2.937279
      px      :     1.024918
      py      :     0.965048
      dz2     :     0.005784  d :     0.036852
      dxz     :     0.007247
      dyz     :     0.010597
      dx2y2   :     0.004199
      dxy     :     0.009025
 23 H s       :     0.976241  s :     0.976241
      pz      :     0.009496  p :     0.025048
      px      :     0.005914
      py      :     0.009639
 24 H s       :     0.958468  s :     0.958468
      pz      :     0.005763  p :     0.023956
      px      :     0.010683
      py      :     0.007511
 25 C s       :     3.073561  s :     3.073561
      pz      :     0.975999  p :     3.006037
      px      :     0.990849
      py      :     1.039190
      dz2     :     0.006685  d :     0.036993
      dxz     :     0.008338
      dyz     :     0.008402
      dx2y2   :     0.003837
      dxy     :     0.009731
 26 H s       :     0.939201  s :     0.939201
      pz      :     0.007878  p :     0.023043
      px      :     0.006465
      py      :     0.008700
 27 H s       :     0.946328  s :     0.946328
      pz      :     0.004209  p :     0.021881
      px      :     0.010332
      py      :     0.007341
 28 C s       :     2.985990  s :     2.985990
      pz      :     0.991404  p :     2.997242
      px      :     0.986562
      py      :     1.019276
      dz2     :     0.006094  d :     0.029274
      dxz     :     0.005059
      dyz     :     0.005993
      dx2y2   :     0.003599
      dxy     :     0.008529
 29 H s       :     0.942311  s :     0.942311
      pz      :     0.012729  p :     0.023464
      px      :     0.005326
      py      :     0.005409
 30 H s       :     0.953463  s :     0.953463
      pz      :     0.007405  p :     0.024431
      px      :     0.005843
      py      :     0.011184
 31 H s       :     0.957253  s :     0.957253
      pz      :     0.005228  p :     0.024352
      px      :     0.010677
      py      :     0.008446
 32 H s       :     0.922247  s :     0.922247
      pz      :     0.012770  p :     0.023546
      px      :     0.004077
      py      :     0.006699
 33 H s       :     0.893818  s :     0.893818
      pz      :     0.011793  p :     0.021820
      px      :     0.006625
      py      :     0.003403


                     *******************************
                     * LOEWDIN POPULATION ANALYSIS *
                     *******************************

----------------------
LOEWDIN ATOMIC CHARGES
----------------------
   0 S :    0.400703
   1 C :   -0.213638
   2 C :   -0.068758
   3 C :   -0.054763
   4 C :   -0.172997
   5 H :    0.017998
   6 C :   -0.030165
   7 H :    0.032354
   8 H :    0.027363
   9 C :   -0.043744
  10 H :    0.022259
  11 H :    0.029641
  12 C :   -0.058905
  13 H :    0.019643
  14 H :    0.023913
  15 H :    0.028538
  16 S :    0.395092
  17 C :   -0.193522
  18 C :   -0.071741
  19 C :   -0.059507
  20 C :   -0.184918
  21 H :    0.027795
  22 C :   -0.017715
  23 H :    0.022171
  24 H :    0.029184
  25 C :   -0.048705
  26 H :    0.028100
  27 H :    0.028126
  28 C :   -0.059971
  29 H :    0.027774
  30 H :    0.020935
  31 H :    0.021493
  32 H :    0.033093
  33 H :    0.042876

-------------------------------
LOEWDIN REDUCED ORBITAL CHARGES
-------------------------------
  0 S s       :     5.500793  s :     5.500793
      pz      :     3.189964  p :     9.963373
      px      :     3.360473
      py      :     3.412936
      dz2     :     0.022797  d :     0.135131
      dxz     :     0.044984
      dyz     :     0.021567
      dx2y2   :     0.018417
      dxy     :     0.027366
  1 C s       :     2.914925  s :     2.914925
      pz      :     1.053770  p :     3.209070
      px      :     1.075995
      py      :     1.079305
      dz2     :     0.015018  d :     0.089643
      dxz     :     0.029205
      dyz     :     0.007998
      dx2y2   :     0.014874
      dxy     :     0.022547
  2 C s       :     2.858863  s :     2.858863
      pz      :     1.025181  p :     3.099712
      px      :     1.066028
      py      :     1.008504
      dz2     :     0.020824  d :     0.110183
      dxz     :     0.026296
      dyz     :     0.014560
      dx2y2   :     0.027000
      dxy     :     0.021502
  3 C s       :     2.844675  s :     2.844675
      pz      :     1.031944  p :     3.110213
      px      :     1.062125
      py      :     1.016144
      dz2     :     0.020306  d :     0.099875
      dxz     :     0.024660
      dyz     :     0.013876
      dx2y2   :     0.020346
      dxy     :     0.020688
  4 C s       :     2.915175  s :     2.915175
      pz      :     1.053988  p :     3.157469
      px      :     1.047222
      py      :     1.056260
      dz2     :     0.021926  d :     0.100353
      dxz     :     0.032457
      dyz     :     0.011655
      dx2y2   :     0.013219
      dxy     :     0.021096
  5 H s       :     0.904863  s :     0.904863
      pz      :     0.018051  p :     0.077139
      px      :     0.038216
      py      :     0.020873
  6 C s       :     2.828477  s :     2.828477
      pz      :     1.031430  p :     3.110361
      px      :     1.012253
      py      :     1.066679
      dz2     :     0.022729  d :     0.091327
      dxz     :     0.020851
      dyz     :     0.017960
      dx2y2   :     0.007595
      dxy     :     0.022192
  7 H s       :     0.907007  s :     0.907007
      pz      :     0.011411  p :     0.060639
      px      :     0.021956
      py      :     0.027271
  8 H s       :     0.899171  s :     0.899171
      pz      :     0.022710  p :     0.073465
      px      :     0.020970
      py      :     0.029785
  9 C s       :     2.812665  s :     2.812665
      pz      :     1.026399  p :     3.135061
      px      :     1.058422
      py      :     1.050240
      dz2     :     0.029019  d :     0.096017
      dxz     :     0.010800
      dyz     :     0.019657
      dx2y2   :     0.011639
      dxy     :     0.024903
 10 H s       :     0.906818  s :     0.906818
      pz      :     0.016508  p :     0.070923
      px      :     0.028941
      py      :     0.025474
 11 H s       :     0.902490  s :     0.902490
      pz      :     0.015534  p :     0.067869
      px      :     0.033841
      py      :     0.018494
 12 C s       :     2.824826  s :     2.824826
      pz      :     1.055216  p :     3.159379
      px      :     1.075273
      py      :     1.028890
      dz2     :     0.022416  d :     0.074700
      dxz     :     0.005459
      dyz     :     0.013905
      dx2y2   :     0.017714
      dxy     :     0.015206
 13 H s       :     0.906746  s :     0.906746
      pz      :     0.016203  p :     0.073611
      px      :     0.040957
      py      :     0.016451
 14 H s       :     0.906974  s :     0.906974
      pz      :     0.039019  p :     0.069113
      px      :     0.015799
      py      :     0.014295
 15 H s       :     0.911883  s :     0.911883
      pz      :     0.015470  p :     0.059578
      px      :     0.018066
      py      :     0.026042
 16 S s       :     5.522988  s :     5.522988
      pz      :     3.046329  p :     9.955796
      px      :     3.458334
      py      :     3.451133
      dz2     :     0.020293  d :     0.126125
      dxz     :     0.034430
      dyz     :     0.042172
      dx2y2   :     0.015102
      dxy     :     0.014128
 17 C s       :     2.956629  s :     2.956629
      pz      :     1.036847  p :     3.161002
      px      :     1.072848
      py      :     1.051307
      dz2     :     0.011153  d :     0.075891
      dxz     :     0.017272
      dyz     :     0.019645
      dx2y2   :     0.016020
      dxy     :     0.011802
 18 C s       :     2.866601  s :     2.866601
      pz      :     1.033682  p :     3.114469
      px      :     1.038681
      py      :     1.042107
      dz2     :     0.022255  d :     0.090671
      dxz     :     0.018994
      dyz     :     0.025039
      dx2y2   :     0.010219
      dxy     :     0.014165
 19 C s       :     2.847301  s :     2.847301
      pz      :     1.047256  p :     3.098569
      px      :     1.015633
      py      :     1.035680
      dz2     :     0.029353  d :     0.113637
      dxz     :     0.021062
      dyz     :     0.024623
      dx2y2   :     0.018048
      dxy     :     0.020552
 20 C s       :     2.906249  s :     2.906249
      pz      :     1.021301  p :     3.176759
      px      :     1.071725
      py      :     1.083733
      dz2     :     0.021500  d :     0.101909
      dxz     :     0.018287
      dyz     :     0.029232
      dx2y2   :     0.018959
      dxy     :     0.013931
 21 H s       :     0.898928  s :     0.898928
      pz      :     0.024587  p :     0.073277
      px      :     0.018862
      py      :     0.029829
 22 C s       :     2.805562  s :     2.805562
      pz      :     1.035606  p :     3.118516
      px      :     1.044236
      py      :     1.038674
      dz2     :     0.013525  d :     0.093637
      dxz     :     0.018893
      dyz     :     0.028490
      dx2y2   :     0.009161
      dxy     :     0.023568
 23 H s       :     0.901691  s :     0.901691
      pz      :     0.028892  p :     0.076137
      px      :     0.018726
      py      :     0.028519
 24 H s       :     0.901228  s :     0.901228
      pz      :     0.016580  p :     0.069588
      px      :     0.031450
      py      :     0.021559
 25 C s       :     2.835223  s :     2.835223
      pz      :     1.024389  p :     3.124299
      px      :     1.032831
      py      :     1.067079
      dz2     :     0.014599  d :     0.089183
      dxz     :     0.021299
      dyz     :     0.021111
      dx2y2   :     0.007959
      dxy     :     0.024214
 26 H s       :     0.905637  s :     0.905637
      pz      :     0.023544  p :     0.066263
      px      :     0.018399
      py      :     0.024321
 27 H s       :     0.906930  s :     0.906930
      pz      :     0.012956  p :     0.064944
      px      :     0.030589
      py      :     0.021399
 28 C s       :     2.825797  s :     2.825797
      pz      :     1.048952  p :     3.159008
      px      :     1.044841
      py      :     1.065216
      dz2     :     0.015288  d :     0.075166
      dxz     :     0.013713
      dyz     :     0.015565
      dx2y2   :     0.008725
      dxy     :     0.021874
 29 H s       :     0.907451  s :     0.907451
      pz      :     0.034807  p :     0.064776
      px      :     0.015088
      py      :     0.014880
 30 H s       :     0.910130  s :     0.910130
      pz      :     0.021294  p :     0.068935
      px      :     0.016851
      py      :     0.030789
 31 H s       :     0.911201  s :     0.911201
      pz      :     0.013461  p :     0.067306
      px      :     0.030617
      py      :     0.023228
 32 H s       :     0.894362  s :     0.894362
      pz      :     0.037935  p :     0.072545
      px      :     0.013143
      py      :     0.021467
 33 H s       :     0.889140  s :     0.889140
      pz      :     0.036072  p :     0.067984
      px      :     0.019656
      py      :     0.012255


                      *****************************
                      * MAYER POPULATION ANALYSIS *
                      *****************************

  NA   - Mulliken gross atomic population
  ZA   - Total nuclear charge
  QA   - Mulliken gross atomic charge
  VA   - Mayer's total valence
  BVA  - Mayer's bonded valence
  FA   - Mayer's free valence

  ATOM       NA         ZA         QA         VA         BVA        FA
  0 S     15.8987    16.0000     0.1013     2.4792     2.4792     0.0000
  1 C      6.1355     6.0000    -0.1355     3.8508     3.8508    -0.0000
  2 C      6.0718     6.0000    -0.0718     4.0090     4.0090    -0.0000
  3 C      5.9614     6.0000     0.0386     3.9444     3.9444    -0.0000
  4 C      6.1463     6.0000    -0.1463     3.9057     3.9057    -0.0000
  5 H      1.0235     1.0000    -0.0235     1.0071     1.0071    -0.0000
  6 C      5.9624     6.0000     0.0376     3.9662     3.9662    -0.0000
  7 H      0.9785     1.0000     0.0215     0.9881     0.9881     0.0000
  8 H      0.9695     1.0000     0.0305     0.9861     0.9861    -0.0000
  9 C      6.0273     6.0000    -0.0273     4.0892     4.0892    -0.0000
 10 H      0.9785     1.0000     0.0215     0.9785     0.9785    -0.0000
 11 H      0.9687     1.0000     0.0313     0.9810     0.9810     0.0000
 12 C      6.0438     6.0000    -0.0438     3.9892     3.9892    -0.0000
 13 H      0.9725     1.0000     0.0275     0.9971     0.9971    -0.0000
 14 H      0.9707     1.0000     0.0293     0.9876     0.9876    -0.0000
 15 H      0.9731     1.0000     0.0269     0.9954     0.9954     0.0000
 16 S     15.8956    16.0000     0.1044     2.4870     2.4870     0.0000
 17 C      6.1278     6.0000    -0.1278     3.8308     3.8308     0.0000
 18 C      6.0402     6.0000    -0.0402     3.9539     3.9539    -0.0000
 19 C      6.0389     6.0000    -0.0389     4.0551     4.0551    -0.0000
 20 C      6.1445     6.0000    -0.1445     3.8985     3.8985     0.0000
 21 H      0.9862     1.0000     0.0138     0.9975     0.9975    -0.0000
 22 C      5.8546     6.0000     0.1454     3.9370     3.9370     0.0000
 23 H      1.0013     1.0000    -0.0013     0.9973     0.9973     0.0000
 24 H      0.9824     1.0000     0.0176     0.9953     0.9953    -0.0000
 25 C      6.1166     6.0000    -0.1166     4.0785     4.0785    -0.0000
 26 H      0.9622     1.0000     0.0378     0.9810     0.9810    -0.0000
 27 H      0.9682     1.0000     0.0318     0.9784     0.9784    -0.0000
 28 C      6.0125     6.0000    -0.0125     4.0010     4.0010    -0.0000
 29 H      0.9658     1.0000     0.0342     0.9856     0.9856     0.0000
 30 H      0.9779     1.0000     0.0221     0.9878     0.9878    -0.0000
 31 H      0.9816     1.0000     0.0184     0.9944     0.9944     0.0000
 32 H      0.9458     1.0000     0.0542     1.0043     1.0043    -0.0000
 33 H      0.9156     1.0000     0.0844     0.9891     0.9891     0.0000

  Mayer bond orders larger than 0.100000
B(  0-S ,  1-C ) :   1.1533 B(  0-S ,  4-C ) :   1.1286 B(  1-C ,  2-C ) :   1.6183 
B(  1-C , 32-H ) :   0.9574 B(  2-C ,  3-C ) :   1.2675 B(  2-C ,  6-C ) :   0.9828 
B(  3-C ,  4-C ) :   1.5827 B(  3-C ,  5-H ) :   1.0019 B(  4-C , 20-C ) :   1.0369 
B(  6-C ,  7-H ) :   0.9490 B(  6-C ,  8-H ) :   0.9340 B(  6-C ,  9-C ) :   1.0901 
B(  9-C , 10-H ) :   0.9482 B(  9-C , 11-H ) :   0.9476 B(  9-C , 12-C ) :   1.0759 
B( 12-C , 13-H ) :   0.9738 B( 12-C , 14-H ) :   0.9729 B( 12-C , 15-H ) :   0.9767 
B( 16-S , 17-C ) :   1.1647 B( 16-S , 20-C ) :   1.1334 B( 17-C , 18-C ) :   1.5861 
B( 17-C , 20-C ) :   0.1018 B( 17-C , 33-H ) :   0.9597 B( 18-C , 19-C ) :   1.2595 
B( 18-C , 21-H ) :   0.9943 B( 19-C , 20-C ) :   1.5968 B( 19-C , 22-C ) :   1.0403 
B( 22-C , 23-H ) :   0.9254 B( 22-C , 24-H ) :   0.9259 B( 22-C , 25-C ) :   1.0593 
B( 25-C , 26-H ) :   0.9558 B( 25-C , 27-H ) :   0.9515 B( 25-C , 28-C ) :   1.0828 
B( 28-C , 29-H ) :   0.9728 B( 28-C , 30-H ) :   0.9736 B( 28-C , 31-H ) :   0.9723 


-------
TIMINGS
-------

Total SCF time: 0 days 0 hours 0 min 20 sec 

Total time                  ....      20.256 sec
Sum of individual times     ....      19.391 sec  ( 95.7%)

Fock matrix formation       ....      17.733 sec  ( 87.5%)
  XC integration            ....       1.479 sec  (  8.3% of F)
    Basis function eval.    ....       0.146 sec  (  9.9% of XC)
    Density eval.           ....       0.105 sec  (  7.1% of XC)
    XC-Functional eval.     ....       0.116 sec  (  7.8% of XC)
    XC-Potential eval.      ....       0.119 sec  (  8.0% of XC)
Diagonalization             ....       0.136 sec  (  0.7%)
Density matrix formation    ....       0.024 sec  (  0.1%)
Population analysis         ....       0.055 sec  (  0.3%)
Initial guess               ....       0.167 sec  (  0.8%)
Orbital Transformation      ....       0.000 sec  (  0.0%)
Orbital Orthonormalization  ....       0.000 sec  (  0.0%)
DIIS solution               ....       0.164 sec  (  0.8%)
SOSCF solution              ....       0.138 sec  (  0.7%)
Grid generation             ....       0.975 sec  (  4.8%)


-------------------------------------------------------------------------------
                          DFT DISPERSION CORRECTION                            
                                                                               
                              DFTD3 V3.1  Rev 1                                
                              USING zero damping                               
-------------------------------------------------------------------------------
The omegaB97X-D3 functional is recognized. Fit by Chai et al.
Active option DFTDOPT                   ...         3   

molecular C6(AA) [au] = 14158.445688 


            DFT-D V3
 parameters
 s6 scaling factor         :     1.0000 
 rs6 scaling factor        :     1.2810 
 s8 scaling factor         :     1.0000 
 rs8 scaling factor        :     1.0940 
 Damping factor alpha6     :    14.0000 
 Damping factor alpha8     :    16.0000 
 ad hoc parameters k1-k3   :    16.0000     1.3333    -4.0000 

 Edisp/kcal,au: -9.211343149857  -0.014679208120 
 E6   /kcal   :  -4.225026715 
 E8   /kcal   :  -4.986316435 
 % E8         :  54.132349149 

-------------------------   ----------------
Dispersion correction           -0.014679208
-------------------------   ----------------


-------------------------   --------------------
FINAL SINGLE POINT ENERGY     -1339.876067084226
-------------------------   --------------------


                            ***************************************
                            *     ORCA property calculations      *
                            ***************************************

                                    ---------------------
                                    Active property flags
                                    ---------------------
   (+) Dipole Moment


------------------------------------------------------------------------------
                       ORCA ELECTRIC PROPERTIES CALCULATION
------------------------------------------------------------------------------

Dipole Moment Calculation                       ... on
Quadrupole Moment Calculation                   ... off
Polarizability Calculation                      ... off
GBWName                                         ... config_4047.gbw
Electron density file                           ... config_4047.scfp
The origin for moment calculation is the CENTER OF MASS  = (-244.527538, 105.116363 -120.878429)

-------------
DIPOLE MOMENT
-------------
                                X             Y             Z
Electronic contribution:    -19.12810      10.20056      19.31299
Nuclear contribution   :     19.69021     -10.47403     -19.57904
                        -----------------------------------------
Total Dipole Moment    :      0.56211      -0.27347      -0.26605
                        -----------------------------------------
Magnitude (a.u.)       :      0.67936
Magnitude (Debye)      :      1.72680



--------------------
Rotational spectrum 
--------------------
 
Rotational constants in cm-1:     0.020263     0.008788     0.006844 
Rotational constants in MHz :   607.458801   263.453607   205.164761 

 Dipole components along the rotational axes: 
x,y,z [a.u.] :    -0.268687    -0.590040    -0.202958 
x,y,z [Debye]:    -0.682948    -1.499763    -0.515879 

 

Timings for individual modules:

Sum of individual times         ...       21.429 sec (=   0.357 min)
GTO integral calculation        ...        0.795 sec (=   0.013 min)   3.7 %
SCF iterations                  ...       20.635 sec (=   0.344 min)  96.3 %
                             ****ORCA TERMINATED NORMALLY****
TOTAL RUN TIME: 0 days 0 hours 0 minutes 22 seconds 92 msec
