
                                 *****************
                                 * O   R   C   A *
                                 *****************

           --- An Ab Initio, DFT and Semiempirical electronic structure package ---

                  #######################################################
                  #                        -***-                        #
                  #          Department of theory and spectroscopy      #
                  #               Directorship: Frank Neese             #
                  #        Max Planck Institute fuer Kohlenforschung    #
                  #                Kaiser Wilhelm Platz 1               #
                  #                 D-45470 Muelheim/Ruhr               #
                  #                      Germany                        #
                  #                                                     #
                  #                  All rights reserved                #
                  #                        -***-                        #
                  #######################################################


                         Program Version 4.2.1 -  RELEASE  -


 With contributions from (in alphabetic order):
   Daniel Aravena         : Magnetic Suceptibility
   Michael Atanasov       : Ab Initio Ligand Field Theory (pilot matlab implementation)
   Alexander A. Auer      : GIAO ZORA, VPT2
   Ute Becker             : Parallelization
   Giovanni Bistoni       : ED, misc. LED, open-shell LED, HFLD
   Martin Brehm           : Molecular dynamics
   Dmytro Bykov           : SCF Hessian
   Vijay G. Chilkuri      : MRCI spin determinant printing, contributions to CSF-ICE
   Dipayan Datta          : RHF DLPNO-CCSD density
   Achintya Kumar Dutta   : EOM-CC, STEOM-CC
   Dmitry Ganyushin       : Spin-Orbit,Spin-Spin,Magnetic field MRCI
   Miquel Garcia          : C-PCM Hessian, Gaussian charge scheme
   Yang Guo               : DLPNO-NEVPT2, CIM, IAO-localization
   Andreas Hansen         : Spin unrestricted coupled pair/coupled cluster methods
   Benjamin Helmich-Paris : CASSCF linear response (MC-RPA)
   Lee Huntington         : MR-EOM, pCC
   Robert Izsak           : Overlap fitted RIJCOSX, COSX-SCS-MP3, EOM
   Christian Kollmar      : KDIIS, OOCD, Brueckner-CCSD(T), CCSD density
   Simone Kossmann        : Meta GGA functionals, TD-DFT gradient, OOMP2, MP2 Hessian
   Martin Krupicka        : AUTO-CI
   Lucas Lang             : DCDCAS
   Dagmar Lenk            : GEPOL surface, SMD
   Dimitrios Liakos       : Extrapolation schemes; Compound Job, initial MDCI parallelization
   Dimitrios Manganas     : Further ROCIS development; embedding schemes
   Dimitrios Pantazis     : SARC Basis sets
   Taras Petrenko         : DFT Hessian,TD-DFT gradient, ASA, ECA, R-Raman, ABS, FL, XAS/XES, NRVS
   Peter Pinski           : DLPNO-MP2, DLPNO-MP2 Gradient
   Christoph Reimann      : Effective Core Potentials
   Marius Retegan         : Local ZFS, SOC
   Christoph Riplinger    : Optimizer, TS searches, QM/MM, DLPNO-CCSD(T), (RO)-DLPNO pert. Triples
   Tobias Risthaus        : Range-separated hybrids, TD-DFT gradient, RPA, STAB
   Michael Roemelt        : Original ROCIS implementation
   Masaaki Saitow         : Open-shell DLPNO-CCSD energy and density
   Barbara Sandhoefer     : DKH picture change effects
   Avijit Sen             : IP-ROCIS
   Kantharuban Sivalingam : CASSCF convergence, NEVPT2, FIC-MRCI
   Bernardo de Souza      : ESD, SOC TD-DFT
   Georgi Stoychev        : AutoAux, RI-MP2 NMR
   Willem Van den Heuvel  : Paramagnetic NMR
   Boris Wezisla          : Elementary symmetry handling
   Frank Wennmohs         : Technical directorship


 We gratefully acknowledge several colleagues who have allowed us to
 interface, adapt or use parts of their codes:
   Stefan Grimme, W. Hujo, H. Kruse,             : VdW corrections, initial TS optimization,
                  C. Bannwarth                     DFT functionals, gCP, sTDA/sTD-DF
   Ed Valeev, F. Pavosevic, A. Kumar             : LibInt (2-el integral package), F12 methods
   Garnet Chan, S. Sharma, J. Yang, R. Olivares  : DMRG
   Ulf Ekstrom                                   : XCFun DFT Library
   Mihaly Kallay                                 : mrcc  (arbitrary order and MRCC methods)
   Andreas Klamt, Michael Diedenhofen            : otool_cosmo (COSMO solvation model)
   Jiri Pittner, Ondrej Demel                    : Mk-CCSD
   Frank Weinhold                                : gennbo (NPA and NBO analysis)
   Christopher J. Cramer and Donald G. Truhlar   : smd solvation model
   Lars Goerigk                                  : TD-DFT with DH, B97 family of functionals
   V. Asgeirsson, H. Jonsson                     : NEB implementation
   FAccTs GmbH                                   : IRC, NEB, NEB-TS, Multilevel, MM, QM/MM, CI optimization
   S Lehtola, MJT Oliveira, MAL Marques          : LibXC Library


 Your calculation uses the libint2 library for the computation of 2-el integrals
 For citations please refer to: http://libint.valeyev.net

 Your ORCA version has been built with support for libXC version: 4.2.3
 For citations please refer to: https://tddft.org/programs/libxc/

 This ORCA versions uses:
   CBLAS   interface :  Fast vector & matrix operations
   LAPACKE interface :  Fast linear algebra routines
   SCALAPACK package :  Parallel linear algebra routines


Your calculation utilizes the atom-pairwise dispersion correction
with the zero-damping scheme (D30)
Cite in your paper:
S.Grimme, J.Antony, S.Ehrlich and H.Krieg, J.Chem.Phys., 132, (2010), 154104 
   

XCFun DFT library Copyright 2009-2010 Ulf Ekstrom and contributors.
See http://admol.org/xcfun for more information. This is free soft-
ware; see the source code for copying conditions. There is ABSOLUTELY
NO WARRANTY; not even for MERCHANTABILITY or FITNESS FOR A PARTICULAR
PURPOSE. For details see the documentation. Scientific users of this 
library should cite U. Ekstrom, L. Visscher, R. Bast, A. J. Thorvald-
sen and K. Ruud; J.Chem.Theor.Comp. 2010, DOI: 10.1021/ct100117s
XCFun Version 0.99 
----- Orbital basis set information -----
Your calculation utilizes the basis: def2-SVP
   F. Weigend and R. Ahlrichs, Phys. Chem. Chem. Phys. 7, 3297 (2005).

================================================================================
                                        WARNINGS
                       Please study these warnings very carefully!
================================================================================


INFO   : the flag for use of LIBINT has been found!

================================================================================
                                       INPUT FILE
================================================================================
NAME = config_2709.inp
|  1> ! wB97X-D3 SP def2-SVP
|  2> %pal
|  3> nprocs 24
|  4> end
|  5> 
|  6> * xyz 0 1
|  7> S 	 -138.569 	 27.2077 	 -21.3339 	 
|  8> C 	 -139.356 	 25.8521 	 -22.0132 	 
|  9> C 	 -138.437 	 25.0594 	 -22.7207 	 
| 10> C 	 -137.13 	 25.7294 	 -22.7974 	 
| 11> C 	 -137.034 	 26.8786 	 -22.0753 	 
| 12> H 	 -136.356 	 25.4024 	 -23.4482 	 
| 13> C 	 -138.671 	 23.7086 	 -23.3995 	 
| 14> H 	 -138.732 	 23.7993 	 -24.5071 	 
| 15> H 	 -139.626 	 23.3974 	 -22.9533 	 
| 16> C 	 -137.69 	 22.6173 	 -23.0009 	 
| 17> H 	 -137.854 	 21.6628 	 -23.4684 	 
| 18> H 	 -136.707 	 23.0082 	 -23.2582 	 
| 19> C 	 -137.648 	 22.5479 	 -21.4543 	 
| 20> H 	 -138.614 	 22.5009 	 -21.0104 	 
| 21> H 	 -137.049 	 21.6682 	 -21.0248 	 
| 22> H 	 -137.078 	 23.4541 	 -21.0475 	 
| 23> S 	 -135.995 	 29.3 	 -22.6863 	 
| 24> C 	 -134.313 	 29.6555 	 -22.3429 	 
| 25> C 	 -133.668 	 28.5803 	 -21.8006 	 
| 26> C 	 -134.515 	 27.4437 	 -21.7089 	 
| 27> C 	 -135.839 	 27.7168 	 -22.0393 	 
| 28> H 	 -132.619 	 28.6704 	 -21.5705 	 
| 29> C 	 -134.05 	 26.0661 	 -21.2685 	 
| 30> H 	 -134.92 	 25.4928 	 -20.9992 	 
| 31> H 	 -133.503 	 26.3118 	 -20.3796 	 
| 32> C 	 -133.139 	 25.2684 	 -22.2265 	 
| 33> H 	 -133.261 	 24.289 	 -21.8684 	 
| 34> H 	 -132.052 	 25.4541 	 -22.002 	 
| 35> C 	 -133.368 	 25.5585 	 -23.708 	 
| 36> H 	 -134.374 	 25.2946 	 -24.0206 	 
| 37> H 	 -132.608 	 25.0761 	 -24.1929 	 
| 38> H 	 -133.239 	 26.586 	 -23.9754 	 
| 39> H 	 -140.337 	 25.6459 	 -21.842 	 
| 40> H 	 -133.839 	 30.5662 	 -22.4822 	 
| 41> *
| 42> 
| 43>                          ****END OF INPUT****
================================================================================

                       ****************************
                       * Single Point Calculation *
                       ****************************

---------------------------------
CARTESIAN COORDINATES (ANGSTROEM)
---------------------------------
  S    -138.569000   27.207700  -21.333900
  C    -139.356000   25.852100  -22.013200
  C    -138.437000   25.059400  -22.720700
  C    -137.130000   25.729400  -22.797400
  C    -137.034000   26.878600  -22.075300
  H    -136.356000   25.402400  -23.448200
  C    -138.671000   23.708600  -23.399500
  H    -138.732000   23.799300  -24.507100
  H    -139.626000   23.397400  -22.953300
  C    -137.690000   22.617300  -23.000900
  H    -137.854000   21.662800  -23.468400
  H    -136.707000   23.008200  -23.258200
  C    -137.648000   22.547900  -21.454300
  H    -138.614000   22.500900  -21.010400
  H    -137.049000   21.668200  -21.024800
  H    -137.078000   23.454100  -21.047500
  S    -135.995000   29.300000  -22.686300
  C    -134.313000   29.655500  -22.342900
  C    -133.668000   28.580300  -21.800600
  C    -134.515000   27.443700  -21.708900
  C    -135.839000   27.716800  -22.039300
  H    -132.619000   28.670400  -21.570500
  C    -134.050000   26.066100  -21.268500
  H    -134.920000   25.492800  -20.999200
  H    -133.503000   26.311800  -20.379600
  C    -133.139000   25.268400  -22.226500
  H    -133.261000   24.289000  -21.868400
  H    -132.052000   25.454100  -22.002000
  C    -133.368000   25.558500  -23.708000
  H    -134.374000   25.294600  -24.020600
  H    -132.608000   25.076100  -24.192900
  H    -133.239000   26.586000  -23.975400
  H    -140.337000   25.645900  -21.842000
  H    -133.839000   30.566200  -22.482200

----------------------------
CARTESIAN COORDINATES (A.U.)
----------------------------
  NO LB      ZA    FRAG     MASS         X           Y           Z
   0 S    16.0000    0    32.060  -261.857461   51.415102  -40.315228
   1 C     6.0000    0    12.011  -263.344675   48.853389  -41.598919
   2 C     6.0000    0    12.011  -261.608017   47.355403  -42.935901
   3 C     6.0000    0    12.011  -259.138145   48.621520  -43.080843
   4 C     6.0000    0    12.011  -258.956731   50.793193  -41.716271
   5 H     1.0000    0     1.008  -257.675497   48.003579  -44.310676
   6 C     6.0000    0    12.011  -262.050213   44.802761  -44.218647
   7 H     1.0000    0     1.008  -262.165486   44.974159  -46.311707
   8 H     1.0000    0     1.008  -263.854901   44.214678  -43.375451
   9 C     6.0000    0    12.011  -260.196391   42.740503  -43.465402
  10 H     1.0000    0     1.008  -260.506306   40.936759  -44.348849
  11 H     1.0000    0     1.008  -258.338791   43.479197  -43.951628
  12 C     6.0000    0    12.011  -260.117023   42.609356  -40.542751
  13 H     1.0000    0     1.008  -261.942498   42.520539  -39.703902
  14 H     1.0000    0     1.008  -258.985077   40.946964  -39.731114
  15 H     1.0000    0     1.008  -259.039879   44.321826  -39.774011
  16 S    16.0000    0    32.060  -256.993306   55.368976  -42.870894
  17 C     6.0000    0    12.011  -253.814786   56.040773  -42.221962
  18 C     6.0000    0    12.011  -252.595913   54.008940  -41.197164
  19 C     6.0000    0    12.011  -254.196511   51.861077  -41.023876
  20 C     6.0000    0    12.011  -256.698508   52.377161  -41.648241
  21 H     1.0000    0     1.008  -250.613590   54.179204  -40.762338
  22 C     6.0000    0    12.011  -253.317788   49.257790  -40.191640
  23 H     1.0000    0     1.008  -254.961850   48.174410  -39.682737
  24 H     1.0000    0     1.008  -252.284108   49.722096  -38.511863
  25 C     6.0000    0    12.011  -251.596248   47.750356  -42.001998
  26 H     1.0000    0     1.008  -251.826794   45.899558  -41.325287
  27 H     1.0000    0     1.008  -249.542115   48.101278  -41.577754
  28 C     6.0000    0    12.011  -252.028995   48.298565  -44.801627
  29 H     1.0000    0     1.008  -253.930060   47.799867  -45.392356
  30 H     1.0000    0     1.008  -250.592803   47.386962  -45.717955
  31 H     1.0000    0     1.008  -251.785220   50.240259  -45.306940
  32 H     1.0000    0     1.008  -265.198496   48.463727  -41.275398
  33 H     1.0000    0     1.008  -252.919056   57.761747  -42.485201

--------------------------------
INTERNAL COORDINATES (ANGSTROEM)
--------------------------------
 S      0   0   0     0.000000000000     0.00000000     0.00000000
 C      1   0   0     1.708352671435     0.00000000     0.00000000
 C      2   1   0     1.404809787836   110.28272551     0.00000000
 C      3   2   1     1.470724953892   110.52160528   352.86743855
 C      4   3   2     1.360626712218   114.82151760     6.30528063
 H      4   3   2     1.062800846819   122.61298267   192.72961606
 C      3   2   1     1.529766675019   128.43805118   175.15412271
 H      7   3   2     1.112980345738   112.21030471   104.72798189
 H      7   3   2     1.099074556161   101.70022681   344.52050376
 C      7   3   2     1.520584969674   114.75388156   232.32998102
 H     10   7   3     1.075417360842   115.12857795   179.51298776
 H     10   7   3     1.088712588335   105.24035526   301.69608163
 C     10   7   3     1.548725902153   108.14555507    51.42353562
 H     13  10   7     1.064148584550   113.19924101    49.49718559
 H     13  10   7     1.147668654273   114.97517504   172.19950422
 H     13  10   7     1.145244375668   109.43639222   286.68659296
 S      5   4   3     2.704814219129   131.55430431   224.73141230
 C     17   5   4     1.753119451150   120.38663366   269.34437450
 C     18  17   5     1.366078083420   111.78696546     1.73016838
 C     19  18  17     1.420449735119   111.95487002     2.38875079
 C     20  19  18     1.391662232727   113.26263900   352.90949915
 H     19  18  17     1.077712865285   118.58951499   178.40902544
 C     20  19  18     1.519196800944   124.17965356   174.13606843
 H     23  20  19     1.076148400547   107.94921867   162.68880357
 H     23  20  19     1.072250297272   100.87569656    48.33972041
 C     23  20  19     1.544024057455   117.98326304   289.35137854
 H     26  23  20     1.049925697371   101.63954858   199.65608126
 H     26  23  20     1.125368268613   111.15388128    92.40208621
 C     26  23  20     1.526905779673   114.54201909   329.81076769
 H     29  26  23     1.086000906998   111.84181752   298.04190951
 H     29  26  23     1.022466512899   105.01231889   171.50390398
 H     29  26  23     1.069532612873   114.01759800    58.09795573
 H      2   1   3     1.016950775603   122.57116801   175.51059785
 H     18  17   5     1.036076724958   126.21681145   184.15735792

---------------------------
INTERNAL COORDINATES (A.U.)
---------------------------
 S      0   0   0     0.000000000000     0.00000000     0.00000000
 C      1   0   0     3.228318689165     0.00000000     0.00000000
 C      2   1   0     2.654705769262   110.28272551     0.00000000
 C      3   2   1     2.779267381179   110.52160528   352.86743855
 C      4   3   2     2.571211856589   114.82151760     6.30528063
 H      4   3   2     2.008402535388   122.61298267   192.72961606
 C      3   2   1     2.890840064586   128.43805118   175.15412271
 H      7   3   2     2.103228045883   112.21030471   104.72798189
 H      7   3   2     2.076949911905   101.70022681   344.52050376
 C      7   3   2     2.873489156042   114.75388156   232.32998102
 H     10   7   3     2.032244291655   115.12857795   179.51298776
 H     10   7   3     2.057368630506   105.24035526   301.69608163
 C     10   7   3     2.926667811580   108.14555507    51.42353562
 H     13  10   7     2.010949390600   113.19924101    49.49718559
 H     13  10   7     2.168779449061   114.97517504   172.19950422
 H     13  10   7     2.164198226427   109.43639222   286.68659296
 S      5   4   3     5.111358117289   131.55430431   224.73141230
 C     17   5   4     3.312915642724   120.38663366   269.34437450
 C     18  17   5     2.581513455215   111.78696546     1.73016838
 C     19  18  17     2.684260986376   111.95487002     2.38875079
 C     20  19  18     2.629860490776   113.26263900   352.90949915
 H     19  18  17     2.036582166392   118.58951499   178.40902544
 C     20  19  18     2.870865897314   124.17965356   174.13606843
 H     23  20  19     2.033625756491   107.94921867   162.68880357
 H     23  20  19     2.026259408860   100.87569656    48.33972041
 C     23  20  19     2.917782612776   117.98326304   289.35137854
 H     26  23  20     1.984072028997   101.63954858   199.65608126
 H     26  23  20     2.126637827483   111.15388128    92.40208621
 C     26  23  20     2.885433755884   114.54201909   329.81076769
 H     29  26  23     2.052244295416   111.84181752   298.04190951
 H     29  26  23     1.932181690485   105.01231889   171.50390398
 H     29  26  23     2.021123729628   114.01759800    58.09795573
 H      2   1   3     1.921758457569   122.57116801   175.51059785
 H     18  17   5     1.957901263901   126.21681145   184.15735792

---------------------
BASIS SET INFORMATION
---------------------
There are 3 groups of distinct atoms

 Group   1 Type S   : 10s7p1d contracted to 4s3p1d pattern {5311/511/1}
 Group   2 Type C   : 7s4p1d contracted to 3s2p1d pattern {511/31/1}
 Group   3 Type H   : 4s1p contracted to 2s1p pattern {31/1}

Atom   0S    basis set group =>   1
Atom   1C    basis set group =>   2
Atom   2C    basis set group =>   2
Atom   3C    basis set group =>   2
Atom   4C    basis set group =>   2
Atom   5H    basis set group =>   3
Atom   6C    basis set group =>   2
Atom   7H    basis set group =>   3
Atom   8H    basis set group =>   3
Atom   9C    basis set group =>   2
Atom  10H    basis set group =>   3
Atom  11H    basis set group =>   3
Atom  12C    basis set group =>   2
Atom  13H    basis set group =>   3
Atom  14H    basis set group =>   3
Atom  15H    basis set group =>   3
Atom  16S    basis set group =>   1
Atom  17C    basis set group =>   2
Atom  18C    basis set group =>   2
Atom  19C    basis set group =>   2
Atom  20C    basis set group =>   2
Atom  21H    basis set group =>   3
Atom  22C    basis set group =>   2
Atom  23H    basis set group =>   3
Atom  24H    basis set group =>   3
Atom  25C    basis set group =>   2
Atom  26H    basis set group =>   3
Atom  27H    basis set group =>   3
Atom  28C    basis set group =>   2
Atom  29H    basis set group =>   3
Atom  30H    basis set group =>   3
Atom  31H    basis set group =>   3
Atom  32H    basis set group =>   3
Atom  33H    basis set group =>   3


           ************************************************************
           *        Program running with 24 parallel MPI-processes    *
           *              working on a common directory               *
           ************************************************************
------------------------------------------------------------------------------
                           ORCA GTO INTEGRAL CALCULATION
------------------------------------------------------------------------------

                         BASIS SET STATISTICS AND STARTUP INFO

 # of primitive gaussian shells          ...  294
 # of primitive gaussian functions       ...  534
 # of contracted shells                  ...  154
 # of contracted basis functions         ...  322
 Highest angular momentum                ...    2
 Maximum contraction depth               ...    5
 Integral package used                   ... LIBINT
 Integral threshhold            Thresh   ...  1.000e-10
 Primitive cut-off              TCut     ...  1.000e-11


------------------------------ INTEGRAL EVALUATION ----------------------------


 * One electron integrals 
 Pre-screening matrix                    ... done
 Shell pair data                         ... done (   0.003 sec)



           ************************************************************
           *        Program running with 24 parallel MPI-processes    *
           *              working on a common directory               *
           ************************************************************
-------------------------------------------------------------------------------
                                 ORCA SCF
-------------------------------------------------------------------------------

------------
SCF SETTINGS
------------
Hamiltonian:
 Density Functional     Method          .... DFT(GTOs)
 Exchange Functional    Exchange        .... WB97X-D3
 Correlation Functional Correlation     .... WB97X-D3
 Gradients option       PostSCFGGA      .... off
 Hybrid DFT is turned on
   Fraction HF Exchange ScalHFX         ....  0.195728
   Scaling of DF-GGA-X  ScalDFX         ....  0.000000
   Scaling of DF-GGA-C  ScalDFC         ....  1.000000
   Scaling of DF-LDA-C  ScalLDAC        ....  1.000000
   Perturbative correction              ....  0.000000
   Density functional embedding theory  .... OFF
 Long-range corrected/Screened/Range-Separated Hybrid DFT is turned on
   Amount of maximum screened exact exchange              ....  0.804272
   Range separation parameter mu (erf(mu*r12)/r12)        ....  0.250000


General Settings:
 Integral files         IntName         .... config_2709
 Hartree-Fock type      HFTyp           .... RHF
 Total Charge           Charge          ....    0
 Multiplicity           Mult            ....    1
 Number of Electrons    NEL             ....  134
 Basis Dimension        Dim             ....  322
 Nuclear Repulsion      ENuc            ....   1322.8502186221 Eh

Convergence Acceleration:
 DIIS                   CNVDIIS         .... on
   Start iteration      DIISMaxIt       ....    12
   Startup error        DIISStart       ....  0.200000
   # of expansion vecs  DIISMaxEq       ....     5
   Bias factor          DIISBfac        ....   1.050
   Max. coefficient     DIISMaxC        ....  10.000
 Newton-Raphson         CNVNR           .... off
 SOSCF                  CNVSOSCF        .... on
   Start iteration      SOSCFMaxIt      ....   150
   Startup grad/error   SOSCFStart      ....  0.003300
 Level Shifting         CNVShift        .... on
   Level shift para.    LevelShift      ....    0.2500
   Turn off err/grad.   ShiftErr        ....    0.0010
 Zerner damping         CNVZerner       .... off
 Static damping         CNVDamp         .... on
   Fraction old density DampFac         ....    0.7000
   Max. Damping (<1)    DampMax         ....    0.9800
   Min. Damping (>=0)   DampMin         ....    0.0000
   Turn off err/grad.   DampErr         ....    0.1000
 Fernandez-Rico         CNVRico         .... off

SCF Procedure:
 Maximum # iterations   MaxIter         ....   125
 SCF integral mode      SCFMode         .... Direct
   Integral package                     .... LIBINT
 Reset frequency        DirectResetFreq ....    20
 Integral Threshold     Thresh          ....  1.000e-10 Eh
 Primitive CutOff       TCut            ....  1.000e-11 Eh

Convergence Tolerance:
 Convergence Check Mode ConvCheckMode   .... Total+1el-Energy
 Convergence forced     ConvForced      .... 0
 Energy Change          TolE            ....  1.000e-06 Eh
 1-El. energy change                    ....  1.000e-03 Eh
 Orbital Gradient       TolG            ....  5.000e-05
 Orbital Rotation angle TolX            ....  5.000e-05
 DIIS Error             TolErr          ....  1.000e-06


Diagonalization of the overlap matrix:
Smallest eigenvalue                        ... 6.459e-04
Time for diagonalization                   ...    0.014 sec
Threshold for overlap eigenvalues          ... 1.000e-08
Number of eigenvalues below threshold      ... 0
Time for construction of square roots      ...    0.026 sec
Total time needed                          ...    0.041 sec

-------------------
DFT GRID GENERATION
-------------------

General Integration Accuracy     IntAcc      ...  4.340
Radial Grid Type                 RadialGrid  ... Gauss-Chebyshev
Angular Grid (max. acc.)         AngularGrid ... Lebedev-110
Angular grid pruning method      GridPruning ... 3 (G Style)
Weight generation scheme         WeightScheme... Becke
Basis function cutoff            BFCut       ...    1.0000e-10
Integration weight cutoff        WCut        ...    1.0000e-14
Grids for H and He will be reduced by one unit

# of grid points (after initial pruning)     ...  41088 (   0.0 sec)
# of grid points (after weights+screening)   ...  36719 (   0.0 sec)
nearest neighbour list constructed           ...    0.0 sec
Grid point re-assignment to atoms done       ...    0.0 sec
Grid point division into batches done        ...    0.0 sec
Reduced shell lists constructed in    0.1 sec

Total number of grid points                  ...    36719
Total number of batches                      ...      590
Average number of points per batch           ...       62
Average number of grid points per atom       ...     1080
Average number of shells per batch           ...    71.00 (46.10%)
Average number of basis functions per batch  ...   138.92 (43.14%)
Average number of large shells per batch     ...    44.46 (62.62%)
Average number of large basis fcns per batch ...    91.15 (65.61%)
Maximum spatial batch extension              ...  15.24, 14.60, 20.45 au
Average spatial batch extension              ...   0.18,  0.18,  0.20 au

Time for grid setup =    0.149 sec

------------------------------
INITIAL GUESS: MODEL POTENTIAL
------------------------------
Loading Hartree-Fock densities                     ... done
Calculating cut-offs                               ... done
Setting up the integral package                    ... done
Initializing the effective Hamiltonian             ... done
Starting the Coulomb interaction                   ... done (   0.0 sec)
Reading the grid                                   ... done
Mapping shells                                     ... done
Starting the XC term evaluation                    ... done (   0.0 sec)
  promolecular density results
     # of electrons  =    133.967051474
     EX              =   -126.770633336
     EC              =     -4.631754482
     EX+EC           =   -131.402387817
Transforming the Hamiltonian                       ... done (   0.0 sec)
Diagonalizing the Hamiltonian                      ... done (   0.0 sec)
Back transforming the eigenvectors                 ... done (   0.0 sec)
Now organizing SCF variables                       ... done
                      ------------------
                      INITIAL GUESS DONE (   0.3 sec)
                      ------------------
--------------
SCF ITERATIONS
--------------
ITER       Energy         Delta-E        Max-DP      RMS-DP      [F,P]     Damp
               ***  Starting incremental Fock matrix formation  ***
  0  -1339.4164206774   0.000000000000 0.06890123  0.00161026  0.1724202 0.7000
  1  -1339.6040246566  -0.187603979264 0.04612303  0.00116962  0.1044689 0.7000
                               ***Turning on DIIS***
  2  -1339.6952593433  -0.091234686693 0.09019698  0.00221131  0.0546606 0.0000
  3  -1339.8345824652  -0.139323121919 0.04358466  0.00099192  0.0442150 0.0000
  4  -1339.8634284856  -0.028846020361 0.00704349  0.00019341  0.0073814 0.0000
                      *** Initiating the SOSCF procedure ***
                           *** Shutting down DIIS ***
                      *** Re-Reading the Fockian *** 
                      *** Removing any level shift *** 
ITER      Energy       Delta-E        Grad      Rot      Max-DP    RMS-DP
  5  -1339.86430674  -0.0008782572  0.001354  0.001354  0.002786  0.000099
               *** Restarting incremental Fock matrix formation ***
  6  -1339.86448732  -0.0001805722  0.001263  0.003456  0.002369  0.000064
  7  -1339.86455238  -0.0000650648  0.000570  0.003824  0.003280  0.000066
  8  -1339.86457020  -0.0000178172  0.000339  0.000667  0.000828  0.000021
  9  -1339.86457488  -0.0000046810  0.000153  0.000434  0.000325  0.000009
 10  -1339.86457537  -0.0000004939  0.000067  0.000212  0.000159  0.000004
                  ***Gradient check signals convergence***
              ***Rediagonalizing the Fockian in SOSCF/NRSCF***

               *****************************************************
               *                     SUCCESS                       *
               *           SCF CONVERGED AFTER  11 CYCLES          *
               *****************************************************

Setting up the final grid:

General Integration Accuracy     IntAcc      ...  4.670
Radial Grid Type                 RadialGrid  ... Gauss-Chebyshev
Angular Grid (max. acc.)         AngularGrid ... Lebedev-302
Angular grid pruning method      GridPruning ... 3 (G Style)
Weight generation scheme         WeightScheme... Becke
Basis function cutoff            BFCut       ...    1.0000e-10
Integration weight cutoff        WCut        ...    1.0000e-14
Grids for H and He will be reduced by one unit

# of grid points (after initial pruning)     ... 161752 (   0.0 sec)
# of grid points (after weights+screening)   ... 141525 (   0.1 sec)
nearest neighbour list constructed           ...    0.0 sec
Grid point re-assignment to atoms done       ...    0.0 sec
Grid point division into batches done        ...    0.5 sec
Reduced shell lists constructed in    0.5 sec

Total number of grid points                  ...   141525
Total number of batches                      ...     2228
Average number of points per batch           ...       63
Average number of grid points per atom       ...     4162
Average number of shells per batch           ...    64.29 (41.74%)
Average number of basis functions per batch  ...   125.29 (38.91%)
Average number of large shells per batch     ...    38.83 (60.40%)
Average number of large basis fcns per batch ...    79.45 (63.41%)
Maximum spatial batch extension              ...  12.19, 14.72, 17.73 au
Average spatial batch extension              ...   0.12,  0.12,  0.12 au

Final grid set up in    0.9 sec
Final integration                            ... done (   0.3 sec)
Change in XC energy                          ...     0.008274287
Integrated number of electrons               ...   133.999859083
Previous integrated no of electrons          ...   133.989032311

----------------
TOTAL SCF ENERGY
----------------

Total Energy       :        -1339.85630133 Eh          -36459.34352 eV

Components:
Nuclear Repulsion  :         1322.85021862 Eh           35996.58448 eV
Electronic Energy  :        -2662.70651995 Eh          -72455.92800 eV
One Electron Energy:        -4462.22397299 Eh         -121423.28735 eV
Two Electron Energy:         1799.51745304 Eh           48967.35935 eV

Virial components:
Potential Energy   :        -2671.75852196 Eh          -72702.24549 eV
Kinetic Energy     :         1331.90222063 Eh           36242.90198 eV
Virial Ratio       :            2.00597197


DFT components:
N(Alpha)           :       66.999929541485 electrons
N(Beta)            :       66.999929541485 electrons
N(Total)           :      133.999859082970 electrons
E(XC)              :      -94.341802651736 Eh       
DFET-embed. en.    :        0.000000000000 Eh       

---------------
SCF CONVERGENCE
---------------

  Last Energy change         ...   -2.4462e-07  Tolerance :   1.0000e-06
  Last MAX-Density change    ...    2.3247e-05  Tolerance :   1.0000e-05
  Last RMS-Density change    ...    7.2542e-07  Tolerance :   1.0000e-06
  Last Orbital Gradient      ...    9.0642e-06  Tolerance :   5.0000e-05
  Last Orbital Rotation      ...    2.7043e-05  Tolerance :   5.0000e-05

             **** THE GBW FILE WAS UPDATED (config_2709.gbw) ****
             **** DENSITY FILE WAS UPDATED (config_2709.scfp) ****
             **** ENERGY FILE WAS UPDATED (config_2709.en.tmp) ****
             **** THE GBW FILE WAS UPDATED (config_2709.gbw) ****
             **** DENSITY FILE WAS UPDATED (config_2709.scfp) ****
----------------
ORBITAL ENERGIES
----------------

  NO   OCC          E(Eh)            E(eV) 
   0   2.0000     -88.965219     -2420.8667 
   1   2.0000     -88.963105     -2420.8092 
   2   2.0000     -10.326470      -280.9975 
   3   2.0000     -10.321808      -280.8707 
   4   2.0000     -10.311493      -280.5900 
   5   2.0000     -10.310923      -280.5745 
   6   2.0000     -10.307106      -280.4706 
   7   2.0000     -10.300784      -280.2986 
   8   2.0000     -10.296090      -280.1709 
   9   2.0000     -10.291240      -280.0389 
  10   2.0000     -10.290690      -280.0239 
  11   2.0000     -10.286902      -279.9208 
  12   2.0000     -10.285239      -279.8756 
  13   2.0000     -10.282111      -279.7905 
  14   2.0000     -10.282046      -279.7887 
  15   2.0000     -10.268227      -279.4127 
  16   2.0000      -8.080924      -219.8931 
  17   2.0000      -8.078527      -219.8279 
  18   2.0000      -6.039498      -164.3431 
  19   2.0000      -6.036966      -164.2742 
  20   2.0000      -6.035095      -164.2233 
  21   2.0000      -6.032897      -164.1635 
  22   2.0000      -6.031752      -164.1323 
  23   2.0000      -6.029361      -164.0673 
  24   2.0000      -1.011286       -27.5185 
  25   2.0000      -0.988776       -26.9060 
  26   2.0000      -0.915040       -24.8995 
  27   2.0000      -0.909387       -24.7457 
  28   2.0000      -0.875684       -23.8286 
  29   2.0000      -0.849880       -23.1264 
  30   2.0000      -0.839147       -22.8343 
  31   2.0000      -0.819974       -22.3126 
  32   2.0000      -0.784940       -21.3593 
  33   2.0000      -0.772541       -21.0219 
  34   2.0000      -0.712602       -19.3909 
  35   2.0000      -0.698965       -19.0198 
  36   2.0000      -0.697618       -18.9832 
  37   2.0000      -0.660921       -17.9846 
  38   2.0000      -0.647564       -17.6211 
  39   2.0000      -0.625001       -17.0071 
  40   2.0000      -0.588955       -16.0263 
  41   2.0000      -0.572217       -15.5708 
  42   2.0000      -0.560630       -15.2555 
  43   2.0000      -0.554033       -15.0760 
  44   2.0000      -0.549188       -14.9442 
  45   2.0000      -0.544018       -14.8035 
  46   2.0000      -0.520443       -14.1620 
  47   2.0000      -0.515529       -14.0283 
  48   2.0000      -0.506168       -13.7735 
  49   2.0000      -0.498959       -13.5774 
  50   2.0000      -0.490937       -13.3591 
  51   2.0000      -0.480823       -13.0839 
  52   2.0000      -0.473969       -12.8974 
  53   2.0000      -0.468716       -12.7544 
  54   2.0000      -0.457737       -12.4556 
  55   2.0000      -0.450002       -12.2452 
  56   2.0000      -0.440682       -11.9916 
  57   2.0000      -0.434038       -11.8108 
  58   2.0000      -0.433141       -11.7864 
  59   2.0000      -0.424028       -11.5384 
  60   2.0000      -0.419242       -11.4081 
  61   2.0000      -0.413802       -11.2601 
  62   2.0000      -0.408767       -11.1231 
  63   2.0000      -0.348550        -9.4845 
  64   2.0000      -0.328247        -8.9321 
  65   2.0000      -0.323917        -8.8142 
  66   2.0000      -0.299751        -8.1566 
  67   0.0000       0.037387         1.0174 
  68   0.0000       0.073226         1.9926 
  69   0.0000       0.114745         3.1224 
  70   0.0000       0.123348         3.3565 
  71   0.0000       0.128959         3.5092 
  72   0.0000       0.132073         3.5939 
  73   0.0000       0.146805         3.9948 
  74   0.0000       0.156398         4.2558 
  75   0.0000       0.162231         4.4145 
  76   0.0000       0.169974         4.6252 
  77   0.0000       0.179085         4.8731 
  78   0.0000       0.190398         5.1810 
  79   0.0000       0.199843         5.4380 
  80   0.0000       0.209730         5.7071 
  81   0.0000       0.215880         5.8744 
  82   0.0000       0.216882         5.9016 
  83   0.0000       0.221342         6.0230 
  84   0.0000       0.226567         6.1652 
  85   0.0000       0.232171         6.3177 
  86   0.0000       0.241205         6.5635 
  87   0.0000       0.244176         6.6444 
  88   0.0000       0.253556         6.8996 
  89   0.0000       0.259201         7.0532 
  90   0.0000       0.260929         7.1002 
  91   0.0000       0.280040         7.6203 
  92   0.0000       0.292297         7.9538 
  93   0.0000       0.300335         8.1725 
  94   0.0000       0.320698         8.7266 
  95   0.0000       0.331174         9.0117 
  96   0.0000       0.338078         9.1996 
  97   0.0000       0.357464         9.7271 
  98   0.0000       0.362430         9.8622 
  99   0.0000       0.371788        10.1169 
 100   0.0000       0.385351        10.4859 
 101   0.0000       0.399041        10.8584 
 102   0.0000       0.414433        11.2773 
 103   0.0000       0.428020        11.6470 
 104   0.0000       0.435410        11.8481 
 105   0.0000       0.446777        12.1574 
 106   0.0000       0.468023        12.7356 
 107   0.0000       0.486093        13.2273 
 108   0.0000       0.495588        13.4856 
 109   0.0000       0.499907        13.6032 
 110   0.0000       0.503934        13.7127 
 111   0.0000       0.517415        14.0796 
 112   0.0000       0.522472        14.2172 
 113   0.0000       0.524768        14.2797 
 114   0.0000       0.534092        14.5334 
 115   0.0000       0.545445        14.8423 
 116   0.0000       0.545792        14.8518 
 117   0.0000       0.551609        15.0100 
 118   0.0000       0.563877        15.3439 
 119   0.0000       0.570043        15.5117 
 120   0.0000       0.572455        15.5773 
 121   0.0000       0.590928        16.0800 
 122   0.0000       0.611133        16.6298 
 123   0.0000       0.620353        16.8807 
 124   0.0000       0.626826        17.0568 
 125   0.0000       0.628985        17.1156 
 126   0.0000       0.642928        17.4950 
 127   0.0000       0.646040        17.5796 
 128   0.0000       0.655884        17.8475 
 129   0.0000       0.664204        18.0739 
 130   0.0000       0.670434        18.2434 
 131   0.0000       0.684130        18.6161 
 132   0.0000       0.693422        18.8690 
 133   0.0000       0.710209        19.3258 
 134   0.0000       0.713686        19.4204 
 135   0.0000       0.714023        19.4296 
 136   0.0000       0.720457        19.6046 
 137   0.0000       0.726448        19.7677 
 138   0.0000       0.734976        19.9997 
 139   0.0000       0.747302        20.3351 
 140   0.0000       0.751793        20.4573 
 141   0.0000       0.753828        20.5127 
 142   0.0000       0.759210        20.6592 
 143   0.0000       0.766193        20.8492 
 144   0.0000       0.770636        20.9701 
 145   0.0000       0.774568        21.0771 
 146   0.0000       0.778513        21.1844 
 147   0.0000       0.786254        21.3951 
 148   0.0000       0.789147        21.4738 
 149   0.0000       0.791710        21.5435 
 150   0.0000       0.794416        21.6172 
 151   0.0000       0.797820        21.7098 
 152   0.0000       0.804209        21.8836 
 153   0.0000       0.808384        21.9972 
 154   0.0000       0.813587        22.1388 
 155   0.0000       0.817127        22.2351 
 156   0.0000       0.820049        22.3147 
 157   0.0000       0.824899        22.4466 
 158   0.0000       0.828307        22.5394 
 159   0.0000       0.838163        22.8076 
 160   0.0000       0.841334        22.8939 
 161   0.0000       0.850209        23.1354 
 162   0.0000       0.855819        23.2880 
 163   0.0000       0.857148        23.3242 
 164   0.0000       0.871993        23.7281 
 165   0.0000       0.876572        23.8527 
 166   0.0000       0.901326        24.5263 
 167   0.0000       0.907814        24.7029 
 168   0.0000       0.912042        24.8179 
 169   0.0000       0.916757        24.9462 
 170   0.0000       0.921735        25.0817 
 171   0.0000       0.927926        25.2502 
 172   0.0000       0.940913        25.6035 
 173   0.0000       0.956811        26.0362 
 174   0.0000       0.963544        26.2194 
 175   0.0000       0.968288        26.3485 
 176   0.0000       0.980639        26.6845 
 177   0.0000       0.996213        27.1083 
 178   0.0000       1.028353        27.9829 
 179   0.0000       1.049911        28.5695 
 180   0.0000       1.069631        29.1061 
 181   0.0000       1.075995        29.2793 
 182   0.0000       1.087963        29.6050 
 183   0.0000       1.123633        30.5756 
 184   0.0000       1.134667        30.8759 
 185   0.0000       1.142034        31.0763 
 186   0.0000       1.165847        31.7243 
 187   0.0000       1.168804        31.8048 
 188   0.0000       1.197918        32.5970 
 189   0.0000       1.211838        32.9758 
 190   0.0000       1.234357        33.5886 
 191   0.0000       1.237504        33.6742 
 192   0.0000       1.245667        33.8963 
 193   0.0000       1.283763        34.9330 
 194   0.0000       1.286568        35.0093 
 195   0.0000       1.301200        35.4075 
 196   0.0000       1.314184        35.7608 
 197   0.0000       1.345844        36.6223 
 198   0.0000       1.358183        36.9580 
 199   0.0000       1.393048        37.9068 
 200   0.0000       1.404070        38.2067 
 201   0.0000       1.414933        38.5023 
 202   0.0000       1.432639        38.9841 
 203   0.0000       1.439168        39.1617 
 204   0.0000       1.460814        39.7508 
 205   0.0000       1.493468        40.6393 
 206   0.0000       1.505717        40.9726 
 207   0.0000       1.512241        41.1502 
 208   0.0000       1.536489        41.8100 
 209   0.0000       1.563091        42.5339 
 210   0.0000       1.593426        43.3593 
 211   0.0000       1.619417        44.0666 
 212   0.0000       1.631851        44.4049 
 213   0.0000       1.637748        44.5654 
 214   0.0000       1.662068        45.2272 
 215   0.0000       1.684531        45.8384 
 216   0.0000       1.692064        46.0434 
 217   0.0000       1.719655        46.7942 
 218   0.0000       1.754076        47.7308 
 219   0.0000       1.774757        48.2936 
 220   0.0000       1.792318        48.7715 
 221   0.0000       1.794571        48.8328 
 222   0.0000       1.803251        49.0690 
 223   0.0000       1.823229        49.6126 
 224   0.0000       1.832536        49.8658 
 225   0.0000       1.836739        49.9802 
 226   0.0000       1.850197        50.3464 
 227   0.0000       1.856372        50.5145 
 228   0.0000       1.863505        50.7086 
 229   0.0000       1.868457        50.8433 
 230   0.0000       1.887256        51.3548 
 231   0.0000       1.893228        51.5173 
 232   0.0000       1.898157        51.6515 
 233   0.0000       1.901905        51.7535 
 234   0.0000       1.908223        51.9254 
 235   0.0000       1.913071        52.0573 
 236   0.0000       1.920063        52.2476 
 237   0.0000       1.935399        52.6649 
 238   0.0000       1.939016        52.7633 
 239   0.0000       1.949912        53.0598 
 240   0.0000       1.959610        53.3237 
 241   0.0000       1.966919        53.5226 
 242   0.0000       1.969951        53.6051 
 243   0.0000       1.978880        53.8481 
 244   0.0000       1.984535        54.0020 
 245   0.0000       2.012077        54.7514 
 246   0.0000       2.013888        54.8007 
 247   0.0000       2.019068        54.9416 
 248   0.0000       2.033202        55.3262 
 249   0.0000       2.042523        55.5799 
 250   0.0000       2.055902        55.9439 
 251   0.0000       2.063739        56.1572 
 252   0.0000       2.067082        56.2482 
 253   0.0000       2.081473        56.6398 
 254   0.0000       2.092325        56.9350 
 255   0.0000       2.102696        57.2173 
 256   0.0000       2.131489        58.0008 
 257   0.0000       2.154130        58.6169 
 258   0.0000       2.159748        58.7697 
 259   0.0000       2.165589        58.9287 
 260   0.0000       2.194591        59.7179 
 261   0.0000       2.201050        59.8936 
 262   0.0000       2.206740        60.0485 
 263   0.0000       2.225916        60.5703 
 264   0.0000       2.231229        60.7148 
 265   0.0000       2.236235        60.8510 
 266   0.0000       2.254443        61.3465 
 267   0.0000       2.283159        62.1279 
 268   0.0000       2.306969        62.7758 
 269   0.0000       2.333239        63.4907 
 270   0.0000       2.348566        63.9077 
 271   0.0000       2.370502        64.5046 
 272   0.0000       2.375867        64.6506 
 273   0.0000       2.385880        64.9231 
 274   0.0000       2.400211        65.3131 
 275   0.0000       2.429981        66.1231 
 276   0.0000       2.459950        66.9387 
 277   0.0000       2.464995        67.0759 
 278   0.0000       2.484132        67.5967 
 279   0.0000       2.489764        67.7499 
 280   0.0000       2.503433        68.1219 
 281   0.0000       2.521393        68.6106 
 282   0.0000       2.528194        68.7957 
 283   0.0000       2.536521        69.0223 
 284   0.0000       2.555212        69.5309 
 285   0.0000       2.567733        69.8716 
 286   0.0000       2.575702        70.0884 
 287   0.0000       2.590499        70.4910 
 288   0.0000       2.615530        71.1722 
 289   0.0000       2.620283        71.3015 
 290   0.0000       2.655249        72.2530 
 291   0.0000       2.667771        72.5937 
 292   0.0000       2.680809        72.9485 
 293   0.0000       2.725936        74.1765 
 294   0.0000       2.731377        74.3245 
 295   0.0000       2.746163        74.7269 
 296   0.0000       2.775282        75.5193 
 297   0.0000       2.793121        76.0047 
 298   0.0000       2.821673        76.7816 
 299   0.0000       2.826041        76.9005 
 300   0.0000       2.869008        78.0697 
 301   0.0000       2.890686        78.6596 
 302   0.0000       2.913340        79.2760 
 303   0.0000       2.940781        80.0227 
 304   0.0000       2.982637        81.1617 
 305   0.0000       2.985824        81.2484 
 306   0.0000       2.993633        81.4609 
 307   0.0000       3.016749        82.0899 
 308   0.0000       3.047492        82.9265 
 309   0.0000       3.086662        83.9923 
 310   0.0000       3.089970        84.0824 
 311   0.0000       3.096377        84.2567 
 312   0.0000       3.131947        85.2246 
 313   0.0000       3.145811        85.6019 
 314   0.0000       3.165276        86.1316 
 315   0.0000       3.182404        86.5976 
 316   0.0000       3.199146        87.0532 
 317   0.0000       3.219852        87.6166 
 318   0.0000       3.245744        88.3212 
 319   0.0000       3.259061        88.6835 
 320   0.0000       3.417096        92.9839 
 321   0.0000       3.466342        94.3240 

                    ********************************
                    * MULLIKEN POPULATION ANALYSIS *
                    ********************************

-----------------------
MULLIKEN ATOMIC CHARGES
-----------------------
   0 S :    0.119206
   1 C :   -0.080110
   2 C :   -0.121458
   3 C :    0.031745
   4 C :   -0.132603
   5 H :   -0.018656
   6 C :    0.073233
   7 H :    0.054888
   8 H :    0.012461
   9 C :   -0.046450
  10 H :    0.039318
  11 H :    0.020441
  12 C :   -0.106309
  13 H :    0.025659
  14 H :    0.039789
  15 H :    0.059080
  16 S :    0.112475
  17 C :   -0.064352
  18 C :   -0.032499
  19 C :   -0.069862
  20 C :   -0.171968
  21 H :    0.016025
  22 C :    0.094880
  23 H :    0.024167
  24 H :    0.020296
  25 C :   -0.074977
  26 H :    0.019703
  27 H :    0.021198
  28 C :    0.027988
  29 H :    0.023492
  30 H :    0.012561
  31 H :    0.030336
  32 H :    0.013060
  33 H :    0.027245
Sum of atomic charges:   -0.0000000

--------------------------------
MULLIKEN REDUCED ORBITAL CHARGES
--------------------------------
  0 S s       :     5.836405  s :     5.836405
      pz      :     3.536836  p :     9.928995
      px      :     3.014459
      py      :     3.377699
      dz2     :     0.012324  d :     0.115394
      dxz     :     0.031337
      dyz     :     0.016938
      dx2y2   :     0.029390
      dxy     :     0.025404
  1 C s       :     3.166012  s :     3.166012
      pz      :     1.054572  p :     2.879781
      px      :     0.901349
      py      :     0.923860
      dz2     :     0.006066  d :     0.034317
      dxz     :     0.005480
      dyz     :     0.005232
      dx2y2   :     0.009467
      dxy     :     0.008072
  2 C s       :     3.106976  s :     3.106976
      pz      :     1.004179  p :     2.972983
      px      :     0.987689
      py      :     0.981115
      dz2     :     0.006568  d :     0.041499
      dxz     :     0.006489
      dyz     :     0.006550
      dx2y2   :     0.009474
      dxy     :     0.012417
  3 C s       :     3.191425  s :     3.191425
      pz      :     0.932721  p :     2.742962
      px      :     0.896493
      py      :     0.913749
      dz2     :     0.004890  d :     0.033867
      dxz     :     0.006628
      dyz     :     0.005902
      dx2y2   :     0.009089
      dxy     :     0.007358
  4 C s       :     3.046889  s :     3.046889
      pz      :     1.042945  p :     3.039801
      px      :     0.976758
      py      :     1.020097
      dz2     :     0.007473  d :     0.045913
      dxz     :     0.009792
      dyz     :     0.006265
      dx2y2   :     0.010997
      dxy     :     0.011386
  5 H s       :     0.993330  s :     0.993330
      pz      :     0.009266  p :     0.025326
      px      :     0.010697
      py      :     0.005363
  6 C s       :     2.980450  s :     2.980450
      pz      :     0.993134  p :     2.910893
      px      :     1.001138
      py      :     0.916622
      dz2     :     0.009104  d :     0.035424
      dxz     :     0.004195
      dyz     :     0.006385
      dx2y2   :     0.009025
      dxy     :     0.006715
  7 H s       :     0.923477  s :     0.923477
      pz      :     0.013880  p :     0.021635
      px      :     0.004170
      py      :     0.003585
  8 H s       :     0.964350  s :     0.964350
      pz      :     0.005850  p :     0.023189
      px      :     0.011891
      py      :     0.005447
  9 C s       :     3.043637  s :     3.043637
      pz      :     0.981097  p :     2.966351
      px      :     1.000203
      py      :     0.985051
      dz2     :     0.009360  d :     0.036461
      dxz     :     0.005162
      dyz     :     0.007587
      dx2y2   :     0.007938
      dxy     :     0.006415
 10 H s       :     0.937852  s :     0.937852
      pz      :     0.005682  p :     0.022830
      px      :     0.004767
      py      :     0.012380
 11 H s       :     0.955767  s :     0.955767
      pz      :     0.005237  p :     0.023792
      px      :     0.012728
      py      :     0.005827
 12 C s       :     3.063620  s :     3.063620
      pz      :     0.963178  p :     3.015268
      px      :     1.021598
      py      :     1.030492
      dz2     :     0.006609  d :     0.027421
      dxz     :     0.007015
      dyz     :     0.005077
      dx2y2   :     0.004123
      dxy     :     0.004597
 13 H s       :     0.950085  s :     0.950085
      pz      :     0.005864  p :     0.024256
      px      :     0.012909
      py      :     0.005483
 14 H s       :     0.939247  s :     0.939247
      pz      :     0.004475  p :     0.020964
      px      :     0.006902
      py      :     0.009588
 15 H s       :     0.919297  s :     0.919297
      pz      :     0.004386  p :     0.021624
      px      :     0.006526
      py      :     0.010712
 16 S s       :     5.844118  s :     5.844118
      pz      :     3.580997  p :     9.931848
      px      :     3.209675
      py      :     3.141177
      dz2     :     0.012905  d :     0.111559
      dxz     :     0.015803
      dyz     :     0.023929
      dx2y2   :     0.041216
      dxy     :     0.017706
 17 C s       :     3.131116  s :     3.131116
      pz      :     1.060925  p :     2.897402
      px      :     0.875211
      py      :     0.961266
      dz2     :     0.004967  d :     0.035834
      dxz     :     0.005734
      dyz     :     0.004274
      dx2y2   :     0.011614
      dxy     :     0.009243
 18 C s       :     3.184559  s :     3.184559
      pz      :     1.000882  p :     2.812416
      px      :     0.863704
      py      :     0.947829
      dz2     :     0.004285  d :     0.035525
      dxz     :     0.003884
      dyz     :     0.006897
      dx2y2   :     0.010216
      dxy     :     0.010244
 19 C s       :     3.077777  s :     3.077777
      pz      :     1.013104  p :     2.947788
      px      :     0.965749
      py      :     0.968934
      dz2     :     0.004191  d :     0.044298
      dxz     :     0.008226
      dyz     :     0.006668
      dx2y2   :     0.012573
      dxy     :     0.012640
 20 C s       :     3.065331  s :     3.065331
      pz      :     1.090189  p :     3.061796
      px      :     1.039884
      py      :     0.931723
      dz2     :     0.005231  d :     0.044840
      dxz     :     0.007642
      dyz     :     0.007081
      dx2y2   :     0.014566
      dxy     :     0.010320
 21 H s       :     0.959817  s :     0.959817
      pz      :     0.005675  p :     0.024158
      px      :     0.014888
      py      :     0.003595
 22 C s       :     2.924318  s :     2.924318
      pz      :     1.023146  p :     2.944954
      px      :     0.989657
      py      :     0.932151
      dz2     :     0.006455  d :     0.035847
      dxz     :     0.007383
      dyz     :     0.006301
      dx2y2   :     0.006947
      dxy     :     0.008761
 23 H s       :     0.952056  s :     0.952056
      pz      :     0.005185  p :     0.023777
      px      :     0.011696
      py      :     0.006896
 24 H s       :     0.955200  s :     0.955200
      pz      :     0.011371  p :     0.024504
      px      :     0.007377
      py      :     0.005756
 25 C s       :     3.041394  s :     3.041394
      pz      :     0.967103  p :     2.996630
      px      :     1.007739
      py      :     1.021788
      dz2     :     0.009240  d :     0.036953
      dxz     :     0.007170
      dyz     :     0.008064
      dx2y2   :     0.009671
      dxy     :     0.002807
 26 H s       :     0.954957  s :     0.954957
      pz      :     0.005181  p :     0.025341
      px      :     0.006173
      py      :     0.013987
 27 H s       :     0.957383  s :     0.957383
      pz      :     0.003801  p :     0.021419
      px      :     0.012670
      py      :     0.004948
 28 C s       :     2.929362  s :     2.929362
      pz      :     0.973492  p :     3.013195
      px      :     1.003537
      py      :     1.036166
      dz2     :     0.006579  d :     0.029455
      dxz     :     0.006962
      dyz     :     0.005073
      dx2y2   :     0.007189
      dxy     :     0.003651
 29 H s       :     0.951770  s :     0.951770
      pz      :     0.004954  p :     0.024738
      px      :     0.013744
      py      :     0.006040
 30 H s       :     0.959731  s :     0.959731
      pz      :     0.007918  p :     0.027708
      px      :     0.010889
      py      :     0.008902
 31 H s       :     0.944097  s :     0.944097
      pz      :     0.004691  p :     0.025567
      px      :     0.005760
      py      :     0.015117
 32 H s       :     0.960002  s :     0.960002
      pz      :     0.006067  p :     0.026938
      px      :     0.016181
      py      :     0.004690
 33 H s       :     0.946853  s :     0.946853
      pz      :     0.005938  p :     0.025902
      px      :     0.005983
      py      :     0.013981


                     *******************************
                     * LOEWDIN POPULATION ANALYSIS *
                     *******************************

----------------------
LOEWDIN ATOMIC CHARGES
----------------------
   0 S :    0.429024
   1 C :   -0.191447
   2 C :   -0.057063
   3 C :   -0.060739
   4 C :   -0.206157
   5 H :    0.020596
   6 C :   -0.034103
   7 H :    0.036690
   8 H :    0.027227
   9 C :   -0.039723
  10 H :    0.024230
  11 H :    0.021307
  12 C :   -0.074150
  13 H :    0.014602
  14 H :    0.030365
  15 H :    0.036257
  16 S :    0.419654
  17 C :   -0.170319
  18 C :   -0.070768
  19 C :   -0.053393
  20 C :   -0.212269
  21 H :    0.033416
  22 C :   -0.031621
  23 H :    0.026524
  24 H :    0.031529
  25 C :   -0.036522
  26 H :    0.020068
  27 H :    0.026977
  28 C :   -0.052008
  29 H :    0.021458
  30 H :    0.016956
  31 H :    0.029198
  32 H :    0.008918
  33 H :    0.015288

-------------------------------
LOEWDIN REDUCED ORBITAL CHARGES
-------------------------------
  0 S s       :     5.477500  s :     5.477500
      pz      :     3.525233  p :     9.949287
      px      :     3.032043
      py      :     3.392011
      dz2     :     0.013728  d :     0.144189
      dxz     :     0.040290
      dyz     :     0.019078
      dx2y2   :     0.038154
      dxy     :     0.032939
  1 C s       :     2.909971  s :     2.909971
      pz      :     1.087047  p :     3.197413
      px      :     1.070185
      py      :     1.040181
      dz2     :     0.012498  d :     0.084064
      dxz     :     0.013519
      dyz     :     0.012816
      dx2y2   :     0.023944
      dxy     :     0.021287
  2 C s       :     2.878413  s :     2.878413
      pz      :     1.007851  p :     3.077773
      px      :     1.042822
      py      :     1.027100
      dz2     :     0.013243  d :     0.100877
      dxz     :     0.015557
      dyz     :     0.015346
      dx2y2   :     0.024634
      dxy     :     0.032097
  3 C s       :     2.865247  s :     2.865247
      pz      :     1.030035  p :     3.105043
      px      :     1.036802
      py      :     1.038205
      dz2     :     0.011261  d :     0.090448
      dxz     :     0.016649
      dyz     :     0.016717
      dx2y2   :     0.024397
      dxy     :     0.021425
  4 C s       :     2.897353  s :     2.897353
      pz      :     1.074617  p :     3.198262
      px      :     1.026427
      py      :     1.097218
      dz2     :     0.015682  d :     0.110541
      dxz     :     0.021467
      dyz     :     0.016140
      dx2y2   :     0.027959
      dxy     :     0.029294
  5 H s       :     0.904080  s :     0.904080
      pz      :     0.026873  p :     0.075324
      px      :     0.031736
      py      :     0.016715
  6 C s       :     2.834824  s :     2.834824
      pz      :     1.045951  p :     3.110177
      px      :     1.054232
      py      :     1.009994
      dz2     :     0.023754  d :     0.089101
      dxz     :     0.010101
      dyz     :     0.015863
      dx2y2   :     0.021521
      dxy     :     0.017863
  7 H s       :     0.899764  s :     0.899764
      pz      :     0.039633  p :     0.063547
      px      :     0.012299
      py      :     0.011615
  8 H s       :     0.905844  s :     0.905844
      pz      :     0.016723  p :     0.066929
      px      :     0.034403
      py      :     0.015803
  9 C s       :     2.830405  s :     2.830405
      pz      :     1.029863  p :     3.120172
      px      :     1.049792
      py      :     1.040518
      dz2     :     0.024823  d :     0.089146
      dxz     :     0.010672
      dyz     :     0.017121
      dx2y2   :     0.019007
      dxy     :     0.017524
 10 H s       :     0.906545  s :     0.906545
      pz      :     0.018918  p :     0.069224
      px      :     0.014549
      py      :     0.035757
 11 H s       :     0.910079  s :     0.910079
      pz      :     0.015749  p :     0.068614
      px      :     0.036262
      py      :     0.016603
 12 C s       :     2.855229  s :     2.855229
      pz      :     1.015303  p :     3.151103
      px      :     1.069830
      py      :     1.065969
      dz2     :     0.018235  d :     0.067818
      dxz     :     0.015841
      dyz     :     0.011233
      dx2y2   :     0.010144
      dxy     :     0.012366
 13 H s       :     0.913465  s :     0.913465
      pz      :     0.019420  p :     0.071933
      px      :     0.037414
      py      :     0.015100
 14 H s       :     0.912042  s :     0.912042
      pz      :     0.014003  p :     0.057593
      px      :     0.017563
      py      :     0.026027
 15 H s       :     0.904419  s :     0.904419
      pz      :     0.013690  p :     0.059324
      px      :     0.016955
      py      :     0.028679
 16 S s       :     5.495828  s :     5.495828
      pz      :     3.555391  p :     9.946077
      px      :     3.230812
      py      :     3.159875
      dz2     :     0.015502  d :     0.138441
      dxz     :     0.017632
      dyz     :     0.029973
      dx2y2   :     0.053891
      dxy     :     0.021443
 17 C s       :     2.914360  s :     2.914360
      pz      :     1.073900  p :     3.171032
      px      :     1.009256
      py      :     1.087875
      dz2     :     0.009695  d :     0.084927
      dxz     :     0.012507
      dyz     :     0.009769
      dx2y2   :     0.029095
      dxy     :     0.023862
 18 C s       :     2.860590  s :     2.860590
      pz      :     1.022376  p :     3.117004
      px      :     1.044942
      py      :     1.049686
      dz2     :     0.008914  d :     0.093174
      dxz     :     0.008649
      dyz     :     0.016726
      dx2y2   :     0.028358
      dxy     :     0.030527
 19 C s       :     2.859292  s :     2.859292
      pz      :     0.986836  p :     3.083791
      px      :     1.051961
      py      :     1.044994
      dz2     :     0.009178  d :     0.110310
      dxz     :     0.018149
      dyz     :     0.012997
      dx2y2   :     0.034855
      dxy     :     0.035131
 20 C s       :     2.900607  s :     2.900607
      pz      :     1.097733  p :     3.203091
      px      :     1.084789
      py      :     1.020569
      dz2     :     0.011003  d :     0.108571
      dxz     :     0.016493
      dyz     :     0.015300
      dx2y2   :     0.037824
      dxy     :     0.027951
 21 H s       :     0.895575  s :     0.895575
      pz      :     0.016805  p :     0.071009
      px      :     0.041799
      py      :     0.012405
 22 C s       :     2.818567  s :     2.818567
      pz      :     1.055262  p :     3.123460
      px      :     1.054458
      py      :     1.013740
      dz2     :     0.014960  d :     0.089594
      dxz     :     0.019435
      dyz     :     0.015887
      dx2y2   :     0.016320
      dxy     :     0.022994
 23 H s       :     0.902463  s :     0.902463
      pz      :     0.016512  p :     0.071013
      px      :     0.033351
      py      :     0.021150
 24 H s       :     0.895555  s :     0.895555
      pz      :     0.033868  p :     0.072916
      px      :     0.021469
      py      :     0.017579
 25 C s       :     2.828431  s :     2.828431
      pz      :     1.014217  p :     3.119016
      px      :     1.039426
      py      :     1.065373
      dz2     :     0.023515  d :     0.089075
      dxz     :     0.015791
      dyz     :     0.019047
      dx2y2   :     0.023550
      dxy     :     0.007173
 26 H s       :     0.903214  s :     0.903214
      pz      :     0.018856  p :     0.076718
      px      :     0.017637
      py      :     0.040225
 27 H s       :     0.912158  s :     0.912158
      pz      :     0.012274  p :     0.060866
      px      :     0.035332
      py      :     0.013260
 28 C s       :     2.803934  s :     2.803934
      pz      :     1.027289  p :     3.171668
      px      :     1.060051
      py      :     1.084327
      dz2     :     0.019615  d :     0.076406
      dxz     :     0.015979
      dyz     :     0.011850
      dx2y2   :     0.019594
      dxy     :     0.009368
 29 H s       :     0.911231  s :     0.911231
      pz      :     0.015792  p :     0.067311
      px      :     0.036292
      py      :     0.015227
 30 H s       :     0.902843  s :     0.902843
      pz      :     0.024853  p :     0.080202
      px      :     0.031027
      py      :     0.024322
 31 H s       :     0.899934  s :     0.899934
      pz      :     0.016072  p :     0.070868
      px      :     0.014695
      py      :     0.040101
 32 H s       :     0.903545  s :     0.903545
      pz      :     0.021083  p :     0.087537
      px      :     0.047751
      py      :     0.018703
 33 H s       :     0.901637  s :     0.901637
      pz      :     0.019947  p :     0.083075
      px      :     0.022791
      py      :     0.040337


                      *****************************
                      * MAYER POPULATION ANALYSIS *
                      *****************************

  NA   - Mulliken gross atomic population
  ZA   - Total nuclear charge
  QA   - Mulliken gross atomic charge
  VA   - Mayer's total valence
  BVA  - Mayer's bonded valence
  FA   - Mayer's free valence

  ATOM       NA         ZA         QA         VA         BVA        FA
  0 S     15.8808    16.0000     0.1192     2.5037     2.5037    -0.0000
  1 C      6.0801     6.0000    -0.0801     3.8495     3.8495    -0.0000
  2 C      6.1215     6.0000    -0.1215     3.9888     3.9888    -0.0000
  3 C      5.9683     6.0000     0.0317     3.9202     3.9202    -0.0000
  4 C      6.1326     6.0000    -0.1326     3.8678     3.8678    -0.0000
  5 H      1.0187     1.0000    -0.0187     1.0128     1.0128    -0.0000
  6 C      5.9268     6.0000     0.0732     3.9478     3.9478     0.0000
  7 H      0.9451     1.0000     0.0549     0.9811     0.9811    -0.0000
  8 H      0.9875     1.0000     0.0125     0.9912     0.9912     0.0000
  9 C      6.0464     6.0000    -0.0464     4.0703     4.0703    -0.0000
 10 H      0.9607     1.0000     0.0393     0.9826     0.9826    -0.0000
 11 H      0.9796     1.0000     0.0204     0.9817     0.9817    -0.0000
 12 C      6.1063     6.0000    -0.1063     3.9873     3.9873    -0.0000
 13 H      0.9743     1.0000     0.0257     0.9932     0.9932    -0.0000
 14 H      0.9602     1.0000     0.0398     0.9821     0.9821     0.0000
 15 H      0.9409     1.0000     0.0591     0.9888     0.9888    -0.0000
 16 S     15.8875    16.0000     0.1125     2.4927     2.4927    -0.0000
 17 C      6.0644     6.0000    -0.0644     3.8531     3.8531    -0.0000
 18 C      6.0325     6.0000    -0.0325     3.9437     3.9437    -0.0000
 19 C      6.0699     6.0000    -0.0699     4.0469     4.0469    -0.0000
 20 C      6.1720     6.0000    -0.1720     3.9036     3.9036    -0.0000
 21 H      0.9840     1.0000     0.0160     0.9954     0.9954    -0.0000
 22 C      5.9051     6.0000     0.0949     3.9581     3.9581    -0.0000
 23 H      0.9758     1.0000     0.0242     0.9999     0.9999    -0.0000
 24 H      0.9797     1.0000     0.0203     0.9841     0.9841    -0.0000
 25 C      6.0750     6.0000    -0.0750     4.1056     4.1056    -0.0000
 26 H      0.9803     1.0000     0.0197     0.9810     0.9810    -0.0000
 27 H      0.9788     1.0000     0.0212     0.9753     0.9753     0.0000
 28 C      5.9720     6.0000     0.0280     3.9956     3.9956     0.0000
 29 H      0.9765     1.0000     0.0235     1.0006     1.0006     0.0000
 30 H      0.9874     1.0000     0.0126     0.9936     0.9936     0.0000
 31 H      0.9697     1.0000     0.0303     0.9959     0.9959     0.0000
 32 H      0.9869     1.0000     0.0131     1.0142     1.0142     0.0000
 33 H      0.9728     1.0000     0.0272     1.0015     1.0015     0.0000

  Mayer bond orders larger than 0.100000
B(  0-S ,  1-C ) :   1.1545 B(  0-S ,  4-C ) :   1.1532 B(  1-C ,  2-C ) :   1.5946 
B(  1-C , 32-H ) :   0.9827 B(  2-C ,  3-C ) :   1.2314 B(  2-C ,  6-C ) :   1.0124 
B(  3-C ,  4-C ) :   1.5740 B(  3-C ,  5-H ) :   1.0011 B(  4-C , 20-C ) :   1.0141 
B(  6-C ,  7-H ) :   0.9419 B(  6-C ,  8-H ) :   0.9433 B(  6-C ,  9-C ) :   1.0701 
B(  9-C , 10-H ) :   0.9616 B(  9-C , 11-H ) :   0.9536 B(  9-C , 12-C ) :   1.0670 
B( 12-C , 13-H ) :   0.9793 B( 12-C , 14-H ) :   0.9746 B( 12-C , 15-H ) :   0.9662 
B( 16-S , 17-C ) :   1.1563 B( 16-S , 20-C ) :   1.1590 B( 17-C , 18-C ) :   1.6103 
B( 17-C , 33-H ) :   0.9749 B( 18-C , 19-C ) :   1.2336 B( 18-C , 21-H ) :   0.9964 
B( 19-C , 20-C ) :   1.5894 B( 19-C , 22-C ) :   1.0498 B( 22-C , 23-H ) :   0.9327 
B( 22-C , 24-H ) :   0.9274 B( 22-C , 25-C ) :   1.0614 B( 25-C , 26-H ) :   0.9585 
B( 25-C , 27-H ) :   0.9504 B( 25-C , 28-C ) :   1.0926 B( 28-C , 29-H ) :   0.9742 
B( 28-C , 30-H ) :   0.9666 B( 28-C , 31-H ) :   0.9575 

-------
TIMINGS
-------

Total SCF time: 0 days 0 hours 0 min 21 sec 

Total time                  ....      21.857 sec
Sum of individual times     ....      20.997 sec  ( 96.1%)

Fock matrix formation       ....      19.317 sec  ( 88.4%)
  XC integration            ....       1.480 sec  (  7.7% of F)
    Basis function eval.    ....       0.158 sec  ( 10.7% of XC)
    Density eval.           ....       0.112 sec  (  7.6% of XC)
    XC-Functional eval.     ....       0.120 sec  (  8.1% of XC)
    XC-Potential eval.      ....       0.131 sec  (  8.9% of XC)
Diagonalization             ....       0.142 sec  (  0.6%)
Density matrix formation    ....       0.022 sec  (  0.1%)
Population analysis         ....       0.057 sec  (  0.3%)
Initial guess               ....       0.171 sec  (  0.8%)
Orbital Transformation      ....       0.000 sec  (  0.0%)
Orbital Orthonormalization  ....       0.000 sec  (  0.0%)
DIIS solution               ....       0.152 sec  (  0.7%)
SOSCF solution              ....       0.128 sec  (  0.6%)
Grid generation             ....       1.008 sec  (  4.6%)


-------------------------------------------------------------------------------
                          DFT DISPERSION CORRECTION                            
                                                                               
                              DFTD3 V3.1  Rev 1                                
                              USING zero damping                               
-------------------------------------------------------------------------------
The omegaB97X-D3 functional is recognized. Fit by Chai et al.
Active option DFTDOPT                   ...         3   

molecular C6(AA) [au] = 14151.652172 


            DFT-D V3
 parameters
 s6 scaling factor         :     1.0000 
 rs6 scaling factor        :     1.2810 
 s8 scaling factor         :     1.0000 
 rs8 scaling factor        :     1.0940 
 Damping factor alpha6     :    14.0000 
 Damping factor alpha8     :    16.0000 
 ad hoc parameters k1-k3   :    16.0000     1.3333    -4.0000 

 Edisp/kcal,au: -10.383691852487  -0.016547464499 
 E6   /kcal   :  -4.914824113 
 E8   /kcal   :  -5.468867740 
 % E8         :  52.667854722 

-------------------------   ----------------
Dispersion correction           -0.016547464
-------------------------   ----------------


-------------------------   --------------------
FINAL SINGLE POINT ENERGY     -1339.872848793383
-------------------------   --------------------


                            ***************************************
                            *     ORCA property calculations      *
                            ***************************************

                                    ---------------------
                                    Active property flags
                                    ---------------------
   (+) Dipole Moment


------------------------------------------------------------------------------
                       ORCA ELECTRIC PROPERTIES CALCULATION
------------------------------------------------------------------------------

Dipole Moment Calculation                       ... on
Quadrupole Moment Calculation                   ... off
Polarizability Calculation                      ... off
GBWName                                         ... config_2709.gbw
Electron density file                           ... config_2709.scfp
The origin for moment calculation is the CENTER OF MASS  = (-257.661043, 49.954036 -42.053050)

-------------
DIPOLE MOMENT
-------------
                                X             Y             Z
Electronic contribution:    -10.43047      25.44708       3.14065
Nuclear contribution   :     10.84526     -25.94410      -3.28591
                        -----------------------------------------
Total Dipole Moment    :      0.41479      -0.49702      -0.14526
                        -----------------------------------------
Magnitude (a.u.)       :      0.66346
Magnitude (Debye)      :      1.68638



--------------------
Rotational spectrum 
--------------------
 
Rotational constants in cm-1:     0.019538     0.010560     0.007710 
Rotational constants in MHz :   585.736789   316.590767   231.130437 

 Dipole components along the rotational axes: 
x,y,z [a.u.] :    -0.101704    -0.651839    -0.070277 
x,y,z [Debye]:    -0.258510    -1.656844    -0.178631 

 

Timings for individual modules:

Sum of individual times         ...       23.050 sec (=   0.384 min)
GTO integral calculation        ...        0.816 sec (=   0.014 min)   3.5 %
SCF iterations                  ...       22.234 sec (=   0.371 min)  96.5 %
                             ****ORCA TERMINATED NORMALLY****
TOTAL RUN TIME: 0 days 0 hours 0 minutes 23 seconds 773 msec
