
                                 *****************
                                 * O   R   C   A *
                                 *****************

           --- An Ab Initio, DFT and Semiempirical electronic structure package ---

                  #######################################################
                  #                        -***-                        #
                  #          Department of theory and spectroscopy      #
                  #               Directorship: Frank Neese             #
                  #        Max Planck Institute fuer Kohlenforschung    #
                  #                Kaiser Wilhelm Platz 1               #
                  #                 D-45470 Muelheim/Ruhr               #
                  #                      Germany                        #
                  #                                                     #
                  #                  All rights reserved                #
                  #                        -***-                        #
                  #######################################################


                         Program Version 4.2.1 -  RELEASE  -


 With contributions from (in alphabetic order):
   Daniel Aravena         : Magnetic Suceptibility
   Michael Atanasov       : Ab Initio Ligand Field Theory (pilot matlab implementation)
   Alexander A. Auer      : GIAO ZORA, VPT2
   Ute Becker             : Parallelization
   Giovanni Bistoni       : ED, misc. LED, open-shell LED, HFLD
   Martin Brehm           : Molecular dynamics
   Dmytro Bykov           : SCF Hessian
   Vijay G. Chilkuri      : MRCI spin determinant printing, contributions to CSF-ICE
   Dipayan Datta          : RHF DLPNO-CCSD density
   Achintya Kumar Dutta   : EOM-CC, STEOM-CC
   Dmitry Ganyushin       : Spin-Orbit,Spin-Spin,Magnetic field MRCI
   Miquel Garcia          : C-PCM Hessian, Gaussian charge scheme
   Yang Guo               : DLPNO-NEVPT2, CIM, IAO-localization
   Andreas Hansen         : Spin unrestricted coupled pair/coupled cluster methods
   Benjamin Helmich-Paris : CASSCF linear response (MC-RPA)
   Lee Huntington         : MR-EOM, pCC
   Robert Izsak           : Overlap fitted RIJCOSX, COSX-SCS-MP3, EOM
   Christian Kollmar      : KDIIS, OOCD, Brueckner-CCSD(T), CCSD density
   Simone Kossmann        : Meta GGA functionals, TD-DFT gradient, OOMP2, MP2 Hessian
   Martin Krupicka        : AUTO-CI
   Lucas Lang             : DCDCAS
   Dagmar Lenk            : GEPOL surface, SMD
   Dimitrios Liakos       : Extrapolation schemes; Compound Job, initial MDCI parallelization
   Dimitrios Manganas     : Further ROCIS development; embedding schemes
   Dimitrios Pantazis     : SARC Basis sets
   Taras Petrenko         : DFT Hessian,TD-DFT gradient, ASA, ECA, R-Raman, ABS, FL, XAS/XES, NRVS
   Peter Pinski           : DLPNO-MP2, DLPNO-MP2 Gradient
   Christoph Reimann      : Effective Core Potentials
   Marius Retegan         : Local ZFS, SOC
   Christoph Riplinger    : Optimizer, TS searches, QM/MM, DLPNO-CCSD(T), (RO)-DLPNO pert. Triples
   Tobias Risthaus        : Range-separated hybrids, TD-DFT gradient, RPA, STAB
   Michael Roemelt        : Original ROCIS implementation
   Masaaki Saitow         : Open-shell DLPNO-CCSD energy and density
   Barbara Sandhoefer     : DKH picture change effects
   Avijit Sen             : IP-ROCIS
   Kantharuban Sivalingam : CASSCF convergence, NEVPT2, FIC-MRCI
   Bernardo de Souza      : ESD, SOC TD-DFT
   Georgi Stoychev        : AutoAux, RI-MP2 NMR
   Willem Van den Heuvel  : Paramagnetic NMR
   Boris Wezisla          : Elementary symmetry handling
   Frank Wennmohs         : Technical directorship


 We gratefully acknowledge several colleagues who have allowed us to
 interface, adapt or use parts of their codes:
   Stefan Grimme, W. Hujo, H. Kruse,             : VdW corrections, initial TS optimization,
                  C. Bannwarth                     DFT functionals, gCP, sTDA/sTD-DF
   Ed Valeev, F. Pavosevic, A. Kumar             : LibInt (2-el integral package), F12 methods
   Garnet Chan, S. Sharma, J. Yang, R. Olivares  : DMRG
   Ulf Ekstrom                                   : XCFun DFT Library
   Mihaly Kallay                                 : mrcc  (arbitrary order and MRCC methods)
   Andreas Klamt, Michael Diedenhofen            : otool_cosmo (COSMO solvation model)
   Jiri Pittner, Ondrej Demel                    : Mk-CCSD
   Frank Weinhold                                : gennbo (NPA and NBO analysis)
   Christopher J. Cramer and Donald G. Truhlar   : smd solvation model
   Lars Goerigk                                  : TD-DFT with DH, B97 family of functionals
   V. Asgeirsson, H. Jonsson                     : NEB implementation
   FAccTs GmbH                                   : IRC, NEB, NEB-TS, Multilevel, MM, QM/MM, CI optimization
   S Lehtola, MJT Oliveira, MAL Marques          : LibXC Library


 Your calculation uses the libint2 library for the computation of 2-el integrals
 For citations please refer to: http://libint.valeyev.net

 Your ORCA version has been built with support for libXC version: 4.2.3
 For citations please refer to: https://tddft.org/programs/libxc/

 This ORCA versions uses:
   CBLAS   interface :  Fast vector & matrix operations
   LAPACKE interface :  Fast linear algebra routines
   SCALAPACK package :  Parallel linear algebra routines


Your calculation utilizes the atom-pairwise dispersion correction
with the zero-damping scheme (D30)
Cite in your paper:
S.Grimme, J.Antony, S.Ehrlich and H.Krieg, J.Chem.Phys., 132, (2010), 154104 
   

XCFun DFT library Copyright 2009-2010 Ulf Ekstrom and contributors.
See http://admol.org/xcfun for more information. This is free soft-
ware; see the source code for copying conditions. There is ABSOLUTELY
NO WARRANTY; not even for MERCHANTABILITY or FITNESS FOR A PARTICULAR
PURPOSE. For details see the documentation. Scientific users of this 
library should cite U. Ekstrom, L. Visscher, R. Bast, A. J. Thorvald-
sen and K. Ruud; J.Chem.Theor.Comp. 2010, DOI: 10.1021/ct100117s
XCFun Version 0.99 
----- Orbital basis set information -----
Your calculation utilizes the basis: def2-SVP
   F. Weigend and R. Ahlrichs, Phys. Chem. Chem. Phys. 7, 3297 (2005).

================================================================================
                                        WARNINGS
                       Please study these warnings very carefully!
================================================================================


INFO   : the flag for use of LIBINT has been found!

================================================================================
                                       INPUT FILE
================================================================================
NAME = config_2786.inp
|  1> ! wB97X-D3 SP def2-SVP
|  2> %pal
|  3> nprocs 24
|  4> end
|  5> 
|  6> * xyz 0 1
|  7> S 	 -130.387 	 23.8886 	 -17.025 	 
|  8> C 	 -131.546 	 22.5966 	 -17.4863 	 
|  9> C 	 -132.815 	 23.0533 	 -17.2623 	 
| 10> C 	 -132.851 	 24.3962 	 -16.7704 	 
| 11> C 	 -131.626 	 25.0157 	 -16.6285 	 
| 12> H 	 -133.774 	 24.9615 	 -16.6871 	 
| 13> C 	 -134.08 	 22.3631 	 -17.7801 	 
| 14> H 	 -133.924 	 21.3059 	 -17.8168 	 
| 15> H 	 -134.201 	 22.6261 	 -18.8375 	 
| 16> C 	 -135.344 	 22.5768 	 -17.013 	 
| 17> H 	 -135.697 	 23.6165 	 -16.9333 	 
| 18> H 	 -136.163 	 21.9728 	 -17.3998 	 
| 19> C 	 -135.3 	 22.1285 	 -15.5178 	 
| 20> H 	 -134.718 	 21.1564 	 -15.3724 	 
| 21> H 	 -134.731 	 22.9006 	 -14.9361 	 
| 22> H 	 -136.272 	 22.0671 	 -15.0881 	 
| 23> S 	 -130.478 	 27.2773 	 -17.6114 	 
| 24> C 	 -130.746 	 28.7683 	 -16.7632 	 
| 25> C 	 -131.441 	 28.5704 	 -15.564 	 
| 26> C 	 -131.694 	 27.1878 	 -15.2877 	 
| 27> C 	 -131.373 	 26.412 	 -16.3782 	 
| 28> H 	 -131.745 	 29.3108 	 -14.8319 	 
| 29> C 	 -132.292 	 26.6359 	 -14.0177 	 
| 30> H 	 -131.704 	 27.0818 	 -13.1383 	 
| 31> H 	 -132.207 	 25.5072 	 -13.9791 	 
| 32> C 	 -133.776 	 26.9507 	 -13.8548 	 
| 33> H 	 -134.267 	 26.1223 	 -14.2829 	 
| 34> H 	 -134.099 	 27.8175 	 -14.4573 	 
| 35> C 	 -134.32 	 27.0202 	 -12.4584 	 
| 36> H 	 -133.515 	 26.9704 	 -11.7396 	 
| 37> H 	 -135.111 	 26.2827 	 -12.345 	 
| 38> H 	 -134.901 	 27.9195 	 -12.2546 	 
| 39> H 	 -131.217 	 21.6339 	 -17.8734 	 
| 40> H 	 -130.244 	 29.6619 	 -17.1171 	 
| 41> *
| 42> 
| 43>                          ****END OF INPUT****
================================================================================

                       ****************************
                       * Single Point Calculation *
                       ****************************

---------------------------------
CARTESIAN COORDINATES (ANGSTROEM)
---------------------------------
  S    -130.387000   23.888600  -17.025000
  C    -131.546000   22.596600  -17.486300
  C    -132.815000   23.053300  -17.262300
  C    -132.851000   24.396200  -16.770400
  C    -131.626000   25.015700  -16.628500
  H    -133.774000   24.961500  -16.687100
  C    -134.080000   22.363100  -17.780100
  H    -133.924000   21.305900  -17.816800
  H    -134.201000   22.626100  -18.837500
  C    -135.344000   22.576800  -17.013000
  H    -135.697000   23.616500  -16.933300
  H    -136.163000   21.972800  -17.399800
  C    -135.300000   22.128500  -15.517800
  H    -134.718000   21.156400  -15.372400
  H    -134.731000   22.900600  -14.936100
  H    -136.272000   22.067100  -15.088100
  S    -130.478000   27.277300  -17.611400
  C    -130.746000   28.768300  -16.763200
  C    -131.441000   28.570400  -15.564000
  C    -131.694000   27.187800  -15.287700
  C    -131.373000   26.412000  -16.378200
  H    -131.745000   29.310800  -14.831900
  C    -132.292000   26.635900  -14.017700
  H    -131.704000   27.081800  -13.138300
  H    -132.207000   25.507200  -13.979100
  C    -133.776000   26.950700  -13.854800
  H    -134.267000   26.122300  -14.282900
  H    -134.099000   27.817500  -14.457300
  C    -134.320000   27.020200  -12.458400
  H    -133.515000   26.970400  -11.739600
  H    -135.111000   26.282700  -12.345000
  H    -134.901000   27.919500  -12.254600
  H    -131.217000   21.633900  -17.873400
  H    -130.244000   29.661900  -17.117100

----------------------------
CARTESIAN COORDINATES (A.U.)
----------------------------
  NO LB      ZA    FRAG     MASS         X           Y           Z
   0 S    16.0000    0    32.060  -246.395721   45.142912  -32.172587
   1 C     6.0000    0    12.011  -248.585914   42.701386  -33.044318
   2 C     6.0000    0    12.011  -250.983976   43.564423  -32.621019
   3 C     6.0000    0    12.011  -251.052007   46.102137  -31.691463
   4 C     6.0000    0    12.011  -248.737092   47.272822  -31.423311
   5 H     1.0000    0     1.008  -252.796224   47.170399  -31.534049
   6 C     6.0000    0    12.011  -253.374480   42.260135  -33.599520
   7 H     1.0000    0     1.008  -253.079683   40.262316  -33.668873
   8 H     1.0000    0     1.008  -253.603137   42.757132  -35.597716
   9 C     6.0000    0    12.011  -255.763094   42.663969  -32.149911
  10 H     1.0000    0     1.008  -256.430167   44.628717  -31.999300
  11 H     1.0000    0     1.008  -257.310780   41.522574  -32.880857
  12 C     6.0000    0    12.011  -255.679946   41.816805  -29.324392
  13 H     1.0000    0     1.008  -254.580125   39.979802  -29.049626
  14 H     1.0000    0     1.008  -254.604692   43.275862  -28.225139
  15 H     1.0000    0     1.008  -257.516760   41.700776  -28.512377
  16 S    16.0000    0    32.060  -246.567687   51.546627  -33.280723
  17 C     6.0000    0    12.011  -247.074133   54.364208  -31.677857
  18 C     6.0000    0    12.011  -248.387493   53.990232  -29.411698
  19 C     6.0000    0    12.011  -248.865593   51.377496  -28.889566
  20 C     6.0000    0    12.011  -248.258991   49.911447  -30.950313
  21 H     1.0000    0     1.008  -248.961970   55.389385  -28.028229
  22 C     6.0000    0    12.011  -249.995650   50.334556  -26.489614
  23 H     1.0000    0     1.008  -248.884491   51.177185  -24.827789
  24 H     1.0000    0     1.008  -249.835023   48.201622  -26.416671
  25 C     6.0000    0    12.011  -252.800003   50.929442  -26.181778
  26 H     1.0000    0     1.008  -253.727859   49.363993  -26.990769
  27 H     1.0000    0     1.008  -253.410385   52.567457  -27.320338
  28 C     6.0000    0    12.011  -253.828014   51.060778  -23.542964
  29 H     1.0000    0     1.008  -252.306785   50.966670  -22.184629
  30 H     1.0000    0     1.008  -255.322788   49.667105  -23.328669
  31 H     1.0000    0     1.008  -254.925945   52.760209  -23.157838
  32 H     1.0000    0     1.008  -247.964194   40.882146  -33.775831
  33 H     1.0000    0     1.008  -246.125491   56.052868  -32.346631

--------------------------------
INTERNAL COORDINATES (ANGSTROEM)
--------------------------------
 S      0   0   0     0.000000000000     0.00000000     0.00000000
 C      1   0   0     1.795923909858     0.00000000     0.00000000
 C      2   1   0     1.367154669377   108.45825790     0.00000000
 C      3   2   1     1.430608968237   113.15778746     1.32297410
 C      4   3   2     1.380051035288   115.74665148     1.25427525
 H      4   3   2     1.085556069487   122.45254968   170.28323782
 C      3   2   1     1.531247164895   124.11364488   167.49303420
 H      7   3   2     1.069277667400   109.67796261    32.13089652
 H      7   3   2     1.096314170300   108.01107684   280.89783969
 C      7   3   2     1.493923056921   117.44296756   153.71620590
 H     10   7   3     1.100880184216   116.33208235    60.66224347
 H     10   7   3     1.088664888751   112.00659838   185.50054789
 C     10   7   3     1.561579946721   115.26130784   301.08008069
 H     13  10   7     1.142297496277   112.36711800   320.98930021
 H     13  10   7     1.121728264777   108.25352265    76.66359734
 H     13  10   7     1.064516815273   112.16834956   194.57803775
 S      5   4   3     2.720079221273   135.29250127   122.11696004
 C     17   5   4     1.736187846980   118.18668146    86.58064597
 C     18  17   5     1.400096443107   111.94274781     6.03471910
 C     19  18  17     1.432457137230   112.91153745     3.40755431
 C     20  19  18     1.376261926379   110.49042554   350.52135843
 H     19  18  17     1.084702065085   128.36918665   179.86945037
 C     20  19  18     1.508342669953   125.84484447   173.40443320
 H     23  20  19     1.148004864972   107.44533752   309.62188015
 H     23  20  19     1.132554038446   111.32112830   190.57085028
 C     23  20  19     1.525742917401   113.57925479    71.07037904
 H     26  23  20     1.053848741518   104.33589066    92.01721415
 H     26  23  20     1.103937267239   112.84987650   338.56465967
 C     26  23  20     1.500233051896   117.49208346   206.77197002
 H     29  26  23     1.080360347292   110.30152979     8.24178581
 H     29  26  23     1.087403701483   109.23347286   239.37636611
 H     29  26  23     1.089878860241   113.92744165   130.02680041
 H      2   1   3     1.088521336493   122.17735090   179.99527185
 H     18  17   5     1.084329364169   118.47731192   176.47891292

---------------------------
INTERNAL COORDINATES (A.U.)
---------------------------
 S      0   0   0     0.000000000000     0.00000000     0.00000000
 C      1   0   0     3.393804346993     0.00000000     0.00000000
 C      2   1   0     2.583547907835   108.45825790     0.00000000
 C      3   2   1     2.703459154699   113.15778746     1.32297410
 C      4   3   2     2.607918507529   115.74665148     1.25427525
 H      4   3   2     2.051403674346   122.45254968   170.28323782
 C      3   2   1     2.893637784996   124.11364488   167.49303420
 H      7   3   2     2.020641952504   109.67796261    32.13089652
 H      7   3   2     2.071733538604   108.01107684   280.89783969
 C      7   3   2     2.823105442731   117.44296756   153.71620590
 H     10   7   3     2.080362054429   116.33208235    60.66224347
 H     10   7   3     2.057278491356   112.00659838   185.50054789
 C     10   7   3     2.950958435525   115.26130784   301.08008069
 H     13  10   7     2.158629431427   112.36711800   320.98930021
 H     13  10   7     2.119759217108   108.25352265    76.66359734
 H     13  10   7     2.011645245821   112.16834956   194.57803775
 S      5   4   3     5.140204790775   135.29250127   122.11696004
 C     17   5   4     3.280919547834   118.18668146    86.58064597
 C     18  17   5     2.645798838549   111.94274781     6.03471910
 C     19  18  17     2.706951687945   112.91153745     3.40755431
 C     20  19  18     2.600758129399   110.49042554   350.52135843
 H     19  18  17     2.049789839910   128.36918665   179.86945037
 C     20  19  18     2.850354562318   125.84484447   173.40443320
 H     23  20  19     2.169414795207   107.44533752   309.62188015
 H     23  20  19     2.140216964529   111.32112830   190.57085028
 C     23  20  19     2.883236264658   113.57925479    71.07037904
 H     26  23  20     1.991485508047   104.33589066    92.01721415
 H     26  23  20     2.086139104112   112.84987650   338.56465967
 C     26  23  20     2.835029605140   117.49208346   206.77197002
 H     29  26  23     2.041585182329   110.30152979     8.24178581
 H     29  26  23     2.054895192816   109.23347286   239.37636611
 H     29  26  23     2.059572565006   113.92744165   130.02680041
 H      2   1   3     2.057007216901   122.17735090   179.99527185
 H     18  17   5     2.049085537249   118.47731192   176.47891292

---------------------
BASIS SET INFORMATION
---------------------
There are 3 groups of distinct atoms

 Group   1 Type S   : 10s7p1d contracted to 4s3p1d pattern {5311/511/1}
 Group   2 Type C   : 7s4p1d contracted to 3s2p1d pattern {511/31/1}
 Group   3 Type H   : 4s1p contracted to 2s1p pattern {31/1}

Atom   0S    basis set group =>   1
Atom   1C    basis set group =>   2
Atom   2C    basis set group =>   2
Atom   3C    basis set group =>   2
Atom   4C    basis set group =>   2
Atom   5H    basis set group =>   3
Atom   6C    basis set group =>   2
Atom   7H    basis set group =>   3
Atom   8H    basis set group =>   3
Atom   9C    basis set group =>   2
Atom  10H    basis set group =>   3
Atom  11H    basis set group =>   3
Atom  12C    basis set group =>   2
Atom  13H    basis set group =>   3
Atom  14H    basis set group =>   3
Atom  15H    basis set group =>   3
Atom  16S    basis set group =>   1
Atom  17C    basis set group =>   2
Atom  18C    basis set group =>   2
Atom  19C    basis set group =>   2
Atom  20C    basis set group =>   2
Atom  21H    basis set group =>   3
Atom  22C    basis set group =>   2
Atom  23H    basis set group =>   3
Atom  24H    basis set group =>   3
Atom  25C    basis set group =>   2
Atom  26H    basis set group =>   3
Atom  27H    basis set group =>   3
Atom  28C    basis set group =>   2
Atom  29H    basis set group =>   3
Atom  30H    basis set group =>   3
Atom  31H    basis set group =>   3
Atom  32H    basis set group =>   3
Atom  33H    basis set group =>   3


           ************************************************************
           *        Program running with 24 parallel MPI-processes    *
           *              working on a common directory               *
           ************************************************************
------------------------------------------------------------------------------
                           ORCA GTO INTEGRAL CALCULATION
------------------------------------------------------------------------------

                         BASIS SET STATISTICS AND STARTUP INFO

 # of primitive gaussian shells          ...  294
 # of primitive gaussian functions       ...  534
 # of contracted shells                  ...  154
 # of contracted basis functions         ...  322
 Highest angular momentum                ...    2
 Maximum contraction depth               ...    5
 Integral package used                   ... LIBINT
 Integral threshhold            Thresh   ...  1.000e-10
 Primitive cut-off              TCut     ...  1.000e-11


------------------------------ INTEGRAL EVALUATION ----------------------------


 * One electron integrals 
 Pre-screening matrix                    ... done
 Shell pair data                         ... done (   0.003 sec)



           ************************************************************
           *        Program running with 24 parallel MPI-processes    *
           *              working on a common directory               *
           ************************************************************
-------------------------------------------------------------------------------
                                 ORCA SCF
-------------------------------------------------------------------------------

------------
SCF SETTINGS
------------
Hamiltonian:
 Density Functional     Method          .... DFT(GTOs)
 Exchange Functional    Exchange        .... WB97X-D3
 Correlation Functional Correlation     .... WB97X-D3
 Gradients option       PostSCFGGA      .... off
 Hybrid DFT is turned on
   Fraction HF Exchange ScalHFX         ....  0.195728
   Scaling of DF-GGA-X  ScalDFX         ....  0.000000
   Scaling of DF-GGA-C  ScalDFC         ....  1.000000
   Scaling of DF-LDA-C  ScalLDAC        ....  1.000000
   Perturbative correction              ....  0.000000
   Density functional embedding theory  .... OFF
 Long-range corrected/Screened/Range-Separated Hybrid DFT is turned on
   Amount of maximum screened exact exchange              ....  0.804272
   Range separation parameter mu (erf(mu*r12)/r12)        ....  0.250000


General Settings:
 Integral files         IntName         .... config_2786
 Hartree-Fock type      HFTyp           .... RHF
 Total Charge           Charge          ....    0
 Multiplicity           Mult            ....    1
 Number of Electrons    NEL             ....  134
 Basis Dimension        Dim             ....  322
 Nuclear Repulsion      ENuc            ....   1295.2060106222 Eh

Convergence Acceleration:
 DIIS                   CNVDIIS         .... on
   Start iteration      DIISMaxIt       ....    12
   Startup error        DIISStart       ....  0.200000
   # of expansion vecs  DIISMaxEq       ....     5
   Bias factor          DIISBfac        ....   1.050
   Max. coefficient     DIISMaxC        ....  10.000
 Newton-Raphson         CNVNR           .... off
 SOSCF                  CNVSOSCF        .... on
   Start iteration      SOSCFMaxIt      ....   150
   Startup grad/error   SOSCFStart      ....  0.003300
 Level Shifting         CNVShift        .... on
   Level shift para.    LevelShift      ....    0.2500
   Turn off err/grad.   ShiftErr        ....    0.0010
 Zerner damping         CNVZerner       .... off
 Static damping         CNVDamp         .... on
   Fraction old density DampFac         ....    0.7000
   Max. Damping (<1)    DampMax         ....    0.9800
   Min. Damping (>=0)   DampMin         ....    0.0000
   Turn off err/grad.   DampErr         ....    0.1000
 Fernandez-Rico         CNVRico         .... off

SCF Procedure:
 Maximum # iterations   MaxIter         ....   125
 SCF integral mode      SCFMode         .... Direct
   Integral package                     .... LIBINT
 Reset frequency        DirectResetFreq ....    20
 Integral Threshold     Thresh          ....  1.000e-10 Eh
 Primitive CutOff       TCut            ....  1.000e-11 Eh

Convergence Tolerance:
 Convergence Check Mode ConvCheckMode   .... Total+1el-Energy
 Convergence forced     ConvForced      .... 0
 Energy Change          TolE            ....  1.000e-06 Eh
 1-El. energy change                    ....  1.000e-03 Eh
 Orbital Gradient       TolG            ....  5.000e-05
 Orbital Rotation angle TolX            ....  5.000e-05
 DIIS Error             TolErr          ....  1.000e-06


Diagonalization of the overlap matrix:
Smallest eigenvalue                        ... 6.882e-04
Time for diagonalization                   ...    0.015 sec
Threshold for overlap eigenvalues          ... 1.000e-08
Number of eigenvalues below threshold      ... 0
Time for construction of square roots      ...    0.027 sec
Total time needed                          ...    0.042 sec

-------------------
DFT GRID GENERATION
-------------------

General Integration Accuracy     IntAcc      ...  4.340
Radial Grid Type                 RadialGrid  ... Gauss-Chebyshev
Angular Grid (max. acc.)         AngularGrid ... Lebedev-110
Angular grid pruning method      GridPruning ... 3 (G Style)
Weight generation scheme         WeightScheme... Becke
Basis function cutoff            BFCut       ...    1.0000e-10
Integration weight cutoff        WCut        ...    1.0000e-14
Grids for H and He will be reduced by one unit

# of grid points (after initial pruning)     ...  41088 (   0.0 sec)
# of grid points (after weights+screening)   ...  36898 (   0.0 sec)
nearest neighbour list constructed           ...    0.0 sec
Grid point re-assignment to atoms done       ...    0.0 sec
Grid point division into batches done        ...    0.0 sec
Reduced shell lists constructed in    0.1 sec

Total number of grid points                  ...    36898
Total number of batches                      ...      595
Average number of points per batch           ...       62
Average number of grid points per atom       ...     1085
Average number of shells per batch           ...    69.96 (45.43%)
Average number of basis functions per batch  ...   139.04 (43.18%)
Average number of large shells per batch     ...    44.35 (63.39%)
Average number of large basis fcns per batch ...    92.12 (66.25%)
Maximum spatial batch extension              ...  15.77, 13.37, 17.44 au
Average spatial batch extension              ...   0.17,  0.16,  0.19 au

Time for grid setup =    0.150 sec

------------------------------
INITIAL GUESS: MODEL POTENTIAL
------------------------------
Loading Hartree-Fock densities                     ... done
Calculating cut-offs                               ... done
Setting up the integral package                    ... done
Initializing the effective Hamiltonian             ... done
Starting the Coulomb interaction                   ... done (   0.0 sec)
Reading the grid                                   ... done
Mapping shells                                     ... done
Starting the XC term evaluation                    ... done (   0.0 sec)
  promolecular density results
     # of electrons  =    133.993797593
     EX              =   -126.728543362
     EC              =     -4.622081961
     EX+EC           =   -131.350625323
Transforming the Hamiltonian                       ... done (   0.0 sec)
Diagonalizing the Hamiltonian                      ... done (   0.0 sec)
Back transforming the eigenvectors                 ... done (   0.0 sec)
Now organizing SCF variables                       ... done
                      ------------------
                      INITIAL GUESS DONE (   0.3 sec)
                      ------------------
--------------
SCF ITERATIONS
--------------
ITER       Energy         Delta-E        Max-DP      RMS-DP      [F,P]     Damp
               ***  Starting incremental Fock matrix formation  ***
  0  -1339.4296074242   0.000000000000 0.06642434  0.00160567  0.1672446 0.7000
  1  -1339.6170005247  -0.187393100568 0.04466611  0.00116505  0.1009559 0.7000
                               ***Turning on DIIS***
  2  -1339.7073927544  -0.090392229637 0.08423567  0.00219702  0.0521699 0.0000
  3  -1339.8438924225  -0.136499668137 0.04279789  0.00100252  0.0378389 0.0000
  4  -1339.8733890674  -0.029496644871 0.00764655  0.00019623  0.0078078 0.0000
                      *** Initiating the SOSCF procedure ***
                           *** Shutting down DIIS ***
                      *** Re-Reading the Fockian *** 
                      *** Removing any level shift *** 
ITER      Energy       Delta-E        Grad      Rot      Max-DP    RMS-DP
  5  -1339.87430851  -0.0009194401  0.001664  0.001664  0.003149  0.000102
               *** Restarting incremental Fock matrix formation ***
  6  -1339.87449517  -0.0001866628  0.001539  0.004278  0.002416  0.000064
  7  -1339.87455979  -0.0000646205  0.000798  0.005044  0.003155  0.000063
  8  -1339.87457771  -0.0000179174  0.000306  0.000567  0.000751  0.000018
  9  -1339.87458141  -0.0000036972  0.000115  0.000361  0.000222  0.000008
                 **** Energy Check signals convergence ****
              ***Rediagonalizing the Fockian in SOSCF/NRSCF***

               *****************************************************
               *                     SUCCESS                       *
               *           SCF CONVERGED AFTER  10 CYCLES          *
               *****************************************************

Setting up the final grid:

General Integration Accuracy     IntAcc      ...  4.670
Radial Grid Type                 RadialGrid  ... Gauss-Chebyshev
Angular Grid (max. acc.)         AngularGrid ... Lebedev-302
Angular grid pruning method      GridPruning ... 3 (G Style)
Weight generation scheme         WeightScheme... Becke
Basis function cutoff            BFCut       ...    1.0000e-10
Integration weight cutoff        WCut        ...    1.0000e-14
Grids for H and He will be reduced by one unit

# of grid points (after initial pruning)     ... 161752 (   0.0 sec)
# of grid points (after weights+screening)   ... 142342 (   0.1 sec)
nearest neighbour list constructed           ...    0.0 sec
Grid point re-assignment to atoms done       ...    0.0 sec
Grid point division into batches done        ...    0.5 sec
Reduced shell lists constructed in    0.5 sec

Total number of grid points                  ...   142342
Total number of batches                      ...     2241
Average number of points per batch           ...       63
Average number of grid points per atom       ...     4187
Average number of shells per batch           ...    64.55 (41.91%)
Average number of basis functions per batch  ...   127.35 (39.55%)
Average number of large shells per batch     ...    39.43 (61.09%)
Average number of large basis fcns per batch ...    81.37 (63.89%)
Maximum spatial batch extension              ...  14.85, 12.51, 15.16 au
Average spatial batch extension              ...   0.11,  0.11,  0.12 au

Final grid set up in    0.9 sec
Final integration                            ... done (   0.3 sec)
Change in XC energy                          ...     0.007545442
Integrated number of electrons               ...   133.999871645
Previous integrated no of electrons          ...   133.998018233

----------------
TOTAL SCF ENERGY
----------------

Total Energy       :        -1339.86703620 Eh          -36459.63563 eV

Components:
Nuclear Repulsion  :         1295.20601062 Eh           35244.34734 eV
Electronic Energy  :        -2635.07304683 Eh          -71703.98296 eV
One Electron Energy:        -4407.04919000 Eh         -119921.90517 eV
Two Electron Energy:         1771.97614317 Eh           48217.92221 eV

Virial components:
Potential Energy   :        -2671.43111270 Eh          -72693.33623 eV
Kinetic Energy     :         1331.56407649 Eh           36233.70061 eV
Virial Ratio       :            2.00623549


DFT components:
N(Alpha)           :       66.999935822435 electrons
N(Beta)            :       66.999935822435 electrons
N(Total)           :      133.999871644870 electrons
E(XC)              :      -94.264133541842 Eh       
DFET-embed. en.    :        0.000000000000 Eh       

---------------
SCF CONVERGENCE
---------------

  Last Energy change         ...   -2.4168e-07  Tolerance :   1.0000e-06
  Last MAX-Density change    ...    1.5361e-04  Tolerance :   1.0000e-05
  Last RMS-Density change    ...    3.3079e-06  Tolerance :   1.0000e-06
  Last Orbital Gradient      ...    7.8133e-05  Tolerance :   5.0000e-05
  Last Orbital Rotation      ...    1.9130e-04  Tolerance :   5.0000e-05

             **** THE GBW FILE WAS UPDATED (config_2786.gbw) ****
             **** DENSITY FILE WAS UPDATED (config_2786.scfp) ****
             **** ENERGY FILE WAS UPDATED (config_2786.en.tmp) ****
             **** THE GBW FILE WAS UPDATED (config_2786.gbw) ****
             **** DENSITY FILE WAS UPDATED (config_2786.scfp) ****
----------------
ORBITAL ENERGIES
----------------

  NO   OCC          E(Eh)            E(eV) 
   0   2.0000     -88.965947     -2420.8865 
   1   2.0000     -88.962150     -2420.7832 
   2   2.0000     -10.326336      -280.9939 
   3   2.0000     -10.321985      -280.8755 
   4   2.0000     -10.321362      -280.8585 
   5   2.0000     -10.316993      -280.7397 
   6   2.0000     -10.302242      -280.3383 
   7   2.0000     -10.302206      -280.3373 
   8   2.0000     -10.300349      -280.2867 
   9   2.0000     -10.299315      -280.2586 
  10   2.0000     -10.291895      -280.0567 
  11   2.0000     -10.291827      -280.0549 
  12   2.0000     -10.287662      -279.9415 
  13   2.0000     -10.281463      -279.7728 
  14   2.0000     -10.277304      -279.6596 
  15   2.0000     -10.273072      -279.5445 
  16   2.0000      -8.081107      -219.8981 
  17   2.0000      -8.076982      -219.7858 
  18   2.0000      -6.039495      -164.3430 
  19   2.0000      -6.035605      -164.2372 
  20   2.0000      -6.035563      -164.2360 
  21   2.0000      -6.031915      -164.1367 
  22   2.0000      -6.031353      -164.1215 
  23   2.0000      -6.027757      -164.0236 
  24   2.0000      -1.009477       -27.4693 
  25   2.0000      -0.984533       -26.7905 
  26   2.0000      -0.914716       -24.8907 
  27   2.0000      -0.913505       -24.8577 
  28   2.0000      -0.870140       -23.6777 
  29   2.0000      -0.857178       -23.3250 
  30   2.0000      -0.838160       -22.8075 
  31   2.0000      -0.812781       -22.1169 
  32   2.0000      -0.785758       -21.3816 
  33   2.0000      -0.774884       -21.0857 
  34   2.0000      -0.705489       -19.1973 
  35   2.0000      -0.694758       -18.9053 
  36   2.0000      -0.691076       -18.8051 
  37   2.0000      -0.664479       -18.0814 
  38   2.0000      -0.640617       -17.4321 
  39   2.0000      -0.623749       -16.9731 
  40   2.0000      -0.603949       -16.4343 
  41   2.0000      -0.565603       -15.3908 
  42   2.0000      -0.559904       -15.2358 
  43   2.0000      -0.557061       -15.1584 
  44   2.0000      -0.538275       -14.6472 
  45   2.0000      -0.532002       -14.4765 
  46   2.0000      -0.522766       -14.2252 
  47   2.0000      -0.512570       -13.9477 
  48   2.0000      -0.508017       -13.8238 
  49   2.0000      -0.497019       -13.5246 
  50   2.0000      -0.489698       -13.3254 
  51   2.0000      -0.480250       -13.0683 
  52   2.0000      -0.471370       -12.8266 
  53   2.0000      -0.462072       -12.5736 
  54   2.0000      -0.458420       -12.4742 
  55   2.0000      -0.453401       -12.3377 
  56   2.0000      -0.447390       -12.1741 
  57   2.0000      -0.437064       -11.8931 
  58   2.0000      -0.430755       -11.7214 
  59   2.0000      -0.425511       -11.5787 
  60   2.0000      -0.419387       -11.4121 
  61   2.0000      -0.408918       -11.1272 
  62   2.0000      -0.406149       -11.0519 
  63   2.0000      -0.340335        -9.2610 
  64   2.0000      -0.333190        -9.0666 
  65   2.0000      -0.327664        -8.9162 
  66   2.0000      -0.297691        -8.1006 
  67   0.0000       0.032243         0.8774 
  68   0.0000       0.067378         1.8334 
  69   0.0000       0.113021         3.0755 
  70   0.0000       0.118473         3.2238 
  71   0.0000       0.126071         3.4306 
  72   0.0000       0.130983         3.5642 
  73   0.0000       0.138253         3.7621 
  74   0.0000       0.157828         4.2947 
  75   0.0000       0.164514         4.4767 
  76   0.0000       0.173895         4.7319 
  77   0.0000       0.176109         4.7922 
  78   0.0000       0.184368         5.0169 
  79   0.0000       0.191841         5.2203 
  80   0.0000       0.198181         5.3928 
  81   0.0000       0.202616         5.5135 
  82   0.0000       0.210252         5.7212 
  83   0.0000       0.213141         5.7999 
  84   0.0000       0.221440         6.0257 
  85   0.0000       0.224354         6.1050 
  86   0.0000       0.230693         6.2775 
  87   0.0000       0.246347         6.7034 
  88   0.0000       0.249184         6.7806 
  89   0.0000       0.254285         6.9194 
  90   0.0000       0.266910         7.2630 
  91   0.0000       0.267274         7.2729 
  92   0.0000       0.289974         7.8906 
  93   0.0000       0.304704         8.2914 
  94   0.0000       0.318775         8.6743 
  95   0.0000       0.332217         9.0401 
  96   0.0000       0.338084         9.1997 
  97   0.0000       0.350290         9.5319 
  98   0.0000       0.363170         9.8823 
  99   0.0000       0.368383        10.0242 
 100   0.0000       0.384108        10.4521 
 101   0.0000       0.388956        10.5840 
 102   0.0000       0.416060        11.3216 
 103   0.0000       0.425641        11.5823 
 104   0.0000       0.441946        12.0260 
 105   0.0000       0.450170        12.2497 
 106   0.0000       0.461471        12.5573 
 107   0.0000       0.476556        12.9677 
 108   0.0000       0.483368        13.1531 
 109   0.0000       0.495188        13.4747 
 110   0.0000       0.503999        13.7145 
 111   0.0000       0.507859        13.8196 
 112   0.0000       0.518205        14.1011 
 113   0.0000       0.524582        14.2746 
 114   0.0000       0.526349        14.3227 
 115   0.0000       0.534418        14.5423 
 116   0.0000       0.549735        14.9590 
 117   0.0000       0.551924        15.0186 
 118   0.0000       0.558352        15.1935 
 119   0.0000       0.561820        15.2879 
 120   0.0000       0.587243        15.9797 
 121   0.0000       0.596695        16.2369 
 122   0.0000       0.615445        16.7471 
 123   0.0000       0.616991        16.7892 
 124   0.0000       0.622056        16.9270 
 125   0.0000       0.627740        17.0817 
 126   0.0000       0.642395        17.4805 
 127   0.0000       0.643823        17.5193 
 128   0.0000       0.656824        17.8731 
 129   0.0000       0.665241        18.1021 
 130   0.0000       0.668025        18.1779 
 131   0.0000       0.682749        18.5786 
 132   0.0000       0.701346        19.0846 
 133   0.0000       0.706594        19.2274 
 134   0.0000       0.709091        19.2953 
 135   0.0000       0.714433        19.4407 
 136   0.0000       0.727231        19.7890 
 137   0.0000       0.730367        19.8743 
 138   0.0000       0.732304        19.9270 
 139   0.0000       0.740478        20.1494 
 140   0.0000       0.742614        20.2076 
 141   0.0000       0.746170        20.3043 
 142   0.0000       0.750179        20.4134 
 143   0.0000       0.755647        20.5622 
 144   0.0000       0.757963        20.6252 
 145   0.0000       0.758403        20.6372 
 146   0.0000       0.762337        20.7443 
 147   0.0000       0.766958        20.8700 
 148   0.0000       0.772851        21.0303 
 149   0.0000       0.778650        21.1882 
 150   0.0000       0.782118        21.2825 
 151   0.0000       0.787717        21.4349 
 152   0.0000       0.791819        21.5465 
 153   0.0000       0.797421        21.6989 
 154   0.0000       0.800084        21.7714 
 155   0.0000       0.806533        21.9469 
 156   0.0000       0.808855        22.0101 
 157   0.0000       0.812946        22.1214 
 158   0.0000       0.819093        22.2887 
 159   0.0000       0.821493        22.3540 
 160   0.0000       0.833598        22.6834 
 161   0.0000       0.838369        22.8132 
 162   0.0000       0.839424        22.8419 
 163   0.0000       0.848782        23.0965 
 164   0.0000       0.859712        23.3939 
 165   0.0000       0.864691        23.5294 
 166   0.0000       0.871909        23.7258 
 167   0.0000       0.882907        24.0251 
 168   0.0000       0.888429        24.1754 
 169   0.0000       0.902030        24.5455 
 170   0.0000       0.904135        24.6028 
 171   0.0000       0.920420        25.0459 
 172   0.0000       0.924984        25.1701 
 173   0.0000       0.940313        25.5872 
 174   0.0000       0.948143        25.8003 
 175   0.0000       0.953438        25.9444 
 176   0.0000       0.971959        26.4484 
 177   0.0000       0.983230        26.7550 
 178   0.0000       0.995580        27.0911 
 179   0.0000       1.038262        28.2525 
 180   0.0000       1.043555        28.3966 
 181   0.0000       1.057434        28.7742 
 182   0.0000       1.083459        29.4824 
 183   0.0000       1.095631        29.8136 
 184   0.0000       1.115315        30.3493 
 185   0.0000       1.134287        30.8655 
 186   0.0000       1.157893        31.5079 
 187   0.0000       1.160738        31.5853 
 188   0.0000       1.171156        31.8688 
 189   0.0000       1.206317        32.8256 
 190   0.0000       1.214082        33.0368 
 191   0.0000       1.249320        33.9957 
 192   0.0000       1.260488        34.2996 
 193   0.0000       1.276358        34.7315 
 194   0.0000       1.284269        34.9467 
 195   0.0000       1.292223        35.1632 
 196   0.0000       1.301384        35.4124 
 197   0.0000       1.324913        36.0527 
 198   0.0000       1.328586        36.1527 
 199   0.0000       1.351101        36.7653 
 200   0.0000       1.378597        37.5135 
 201   0.0000       1.393808        37.9274 
 202   0.0000       1.425047        38.7775 
 203   0.0000       1.455363        39.6024 
 204   0.0000       1.473956        40.1084 
 205   0.0000       1.499505        40.8036 
 206   0.0000       1.511403        41.1274 
 207   0.0000       1.516131        41.2560 
 208   0.0000       1.537607        41.8404 
 209   0.0000       1.573907        42.8282 
 210   0.0000       1.586235        43.1637 
 211   0.0000       1.622217        44.1428 
 212   0.0000       1.633324        44.4450 
 213   0.0000       1.643124        44.7117 
 214   0.0000       1.647915        44.8421 
 215   0.0000       1.651349        44.9355 
 216   0.0000       1.677625        45.6505 
 217   0.0000       1.694912        46.1209 
 218   0.0000       1.735965        47.2380 
 219   0.0000       1.748636        47.5828 
 220   0.0000       1.759559        47.8800 
 221   0.0000       1.775768        48.3211 
 222   0.0000       1.805401        49.1275 
 223   0.0000       1.810702        49.2717 
 224   0.0000       1.815630        49.4058 
 225   0.0000       1.825429        49.6724 
 226   0.0000       1.832910        49.8760 
 227   0.0000       1.845425        50.2166 
 228   0.0000       1.862115        50.6707 
 229   0.0000       1.865968        50.7756 
 230   0.0000       1.875292        51.0293 
 231   0.0000       1.882480        51.2249 
 232   0.0000       1.890373        51.4397 
 233   0.0000       1.894034        51.5393 
 234   0.0000       1.898215        51.6531 
 235   0.0000       1.902637        51.7734 
 236   0.0000       1.911912        52.0258 
 237   0.0000       1.922250        52.3071 
 238   0.0000       1.933939        52.6252 
 239   0.0000       1.944129        52.9024 
 240   0.0000       1.955174        53.2030 
 241   0.0000       1.958410        53.2910 
 242   0.0000       1.965239        53.4769 
 243   0.0000       1.973693        53.7069 
 244   0.0000       1.983147        53.9642 
 245   0.0000       1.998755        54.3889 
 246   0.0000       2.011896        54.7465 
 247   0.0000       2.027245        55.1641 
 248   0.0000       2.034837        55.3707 
 249   0.0000       2.036524        55.4166 
 250   0.0000       2.043352        55.6024 
 251   0.0000       2.059181        56.0332 
 252   0.0000       2.069040        56.3014 
 253   0.0000       2.079881        56.5964 
 254   0.0000       2.095071        57.0098 
 255   0.0000       2.100252        57.1508 
 256   0.0000       2.108716        57.3811 
 257   0.0000       2.125800        57.8460 
 258   0.0000       2.141642        58.2770 
 259   0.0000       2.158158        58.7265 
 260   0.0000       2.170493        59.0621 
 261   0.0000       2.192200        59.6528 
 262   0.0000       2.203354        59.9563 
 263   0.0000       2.213058        60.2204 
 264   0.0000       2.222799        60.4854 
 265   0.0000       2.246062        61.1184 
 266   0.0000       2.258145        61.4472 
 267   0.0000       2.262638        61.5695 
 268   0.0000       2.268689        61.7342 
 269   0.0000       2.283074        62.1256 
 270   0.0000       2.309173        62.8358 
 271   0.0000       2.342719        63.7486 
 272   0.0000       2.363329        64.3094 
 273   0.0000       2.382108        64.8205 
 274   0.0000       2.394455        65.1564 
 275   0.0000       2.412189        65.6390 
 276   0.0000       2.432905        66.2027 
 277   0.0000       2.442086        66.4525 
 278   0.0000       2.458682        66.9041 
 279   0.0000       2.466421        67.1147 
 280   0.0000       2.481943        67.5371 
 281   0.0000       2.490731        67.7762 
 282   0.0000       2.500949        68.0543 
 283   0.0000       2.520726        68.5924 
 284   0.0000       2.528723        68.8100 
 285   0.0000       2.556311        69.5608 
 286   0.0000       2.573749        70.0353 
 287   0.0000       2.595297        70.6216 
 288   0.0000       2.613036        71.1043 
 289   0.0000       2.625653        71.4476 
 290   0.0000       2.644605        71.9634 
 291   0.0000       2.659931        72.3804 
 292   0.0000       2.666536        72.5601 
 293   0.0000       2.716523        73.9203 
 294   0.0000       2.744521        74.6822 
 295   0.0000       2.749232        74.8104 
 296   0.0000       2.774545        75.4992 
 297   0.0000       2.796466        76.0957 
 298   0.0000       2.807558        76.3975 
 299   0.0000       2.813939        76.5712 
 300   0.0000       2.823252        76.8246 
 301   0.0000       2.834798        77.1388 
 302   0.0000       2.872785        78.1725 
 303   0.0000       2.891613        78.6848 
 304   0.0000       2.939348        79.9837 
 305   0.0000       2.954024        80.3831 
 306   0.0000       2.984707        81.2180 
 307   0.0000       3.013343        81.9972 
 308   0.0000       3.030375        82.4607 
 309   0.0000       3.037276        82.6485 
 310   0.0000       3.056843        83.1809 
 311   0.0000       3.073428        83.6322 
 312   0.0000       3.081227        83.8444 
 313   0.0000       3.131864        85.2224 
 314   0.0000       3.139748        85.4369 
 315   0.0000       3.154617        85.8415 
 316   0.0000       3.182604        86.6031 
 317   0.0000       3.202646        87.1484 
 318   0.0000       3.224369        87.7395 
 319   0.0000       3.250713        88.4564 
 320   0.0000       3.384390        92.0939 
 321   0.0000       3.450899        93.9037 

                    ********************************
                    * MULLIKEN POPULATION ANALYSIS *
                    ********************************

-----------------------
MULLIKEN ATOMIC CHARGES
-----------------------
   0 S :    0.095678
   1 C :   -0.148987
   2 C :   -0.067604
   3 C :    0.026448
   4 C :   -0.156084
   5 H :    0.012897
   6 C :    0.098902
   7 H :    0.010176
   8 H :    0.050305
   9 C :   -0.092866
  10 H :    0.032838
  11 H :    0.032504
  12 C :   -0.092828
  13 H :    0.039799
  14 H :    0.034580
  15 H :    0.035073
  16 S :    0.117776
  17 C :   -0.093480
  18 C :   -0.016448
  19 C :   -0.034766
  20 C :   -0.175709
  21 H :    0.017629
  22 C :    0.028545
  23 H :    0.043319
  24 H :    0.054301
  25 C :   -0.077937
  26 H :    0.011517
  27 H :    0.036384
  28 C :   -0.021662
  29 H :    0.030354
  30 H :    0.025792
  31 H :    0.022883
  32 H :    0.054449
  33 H :    0.066222
Sum of atomic charges:    0.0000000

--------------------------------
MULLIKEN REDUCED ORBITAL CHARGES
--------------------------------
  0 S s       :     5.850142  s :     5.850142
      pz      :     3.598445  p :     9.948600
      px      :     3.323717
      py      :     3.026438
      dz2     :     0.015191  d :     0.105580
      dxz     :     0.014053
      dyz     :     0.018773
      dx2y2   :     0.014282
      dxy     :     0.043281
  1 C s       :     3.225515  s :     3.225515
      pz      :     1.078479  p :     2.890499
      px      :     0.915559
      py      :     0.896461
      dz2     :     0.002848  d :     0.032973
      dxz     :     0.007429
      dyz     :     0.003332
      dx2y2   :     0.007119
      dxy     :     0.012246
  2 C s       :     3.061994  s :     3.061994
      pz      :     0.994222  p :     2.961689
      px      :     0.961144
      py      :     1.006322
      dz2     :     0.004809  d :     0.043921
      dxz     :     0.009305
      dyz     :     0.005800
      dx2y2   :     0.013285
      dxy     :     0.010722
  3 C s       :     3.188895  s :     3.188895
      pz      :     1.017516  p :     2.750547
      px      :     0.845148
      py      :     0.887883
      dz2     :     0.003591  d :     0.034109
      dxz     :     0.004826
      dyz     :     0.005394
      dx2y2   :     0.009724
      dxy     :     0.010574
  4 C s       :     3.054810  s :     3.054810
      pz      :     1.082621  p :     3.054450
      px      :     0.960976
      py      :     1.010853
      dz2     :     0.003796  d :     0.046823
      dxz     :     0.009268
      dyz     :     0.005720
      dx2y2   :     0.010820
      dxy     :     0.017220
  5 H s       :     0.963250  s :     0.963250
      pz      :     0.005205  p :     0.023853
      px      :     0.011914
      py      :     0.006734
  6 C s       :     2.933260  s :     2.933260
      pz      :     1.012156  p :     2.931437
      px      :     0.925628
      py      :     0.993652
      dz2     :     0.010054  d :     0.036401
      dxz     :     0.007375
      dyz     :     0.002514
      dx2y2   :     0.010181
      dxy     :     0.006276
  7 H s       :     0.965690  s :     0.965690
      pz      :     0.005197  p :     0.024134
      px      :     0.004437
      py      :     0.014500
  8 H s       :     0.926618  s :     0.926618
      pz      :     0.013306  p :     0.023077
      px      :     0.003892
      py      :     0.005879
  9 C s       :     3.052300  s :     3.052300
      pz      :     0.982692  p :     3.003721
      px      :     1.003177
      py      :     1.017852
      dz2     :     0.009510  d :     0.036845
      dxz     :     0.008220
      dyz     :     0.005134
      dx2y2   :     0.006265
      dxy     :     0.007715
 10 H s       :     0.944796  s :     0.944796
      pz      :     0.004588  p :     0.022366
      px      :     0.004780
      py      :     0.012998
 11 H s       :     0.944522  s :     0.944522
      pz      :     0.005866  p :     0.022974
      px      :     0.009437
      py      :     0.007671
 12 C s       :     3.054334  s :     3.054334
      pz      :     0.976732  p :     3.011013
      px      :     1.009762
      py      :     1.024519
      dz2     :     0.006051  d :     0.027482
      dxz     :     0.006341
      dyz     :     0.005750
      dx2y2   :     0.004554
      dxy     :     0.004785
 13 H s       :     0.939251  s :     0.939251
      pz      :     0.003511  p :     0.020950
      px      :     0.006684
      py      :     0.010755
 14 H s       :     0.942851  s :     0.942851
      pz      :     0.006226  p :     0.022569
      px      :     0.007448
      py      :     0.008895
 15 H s       :     0.940812  s :     0.940812
      pz      :     0.005928  p :     0.024115
      px      :     0.012950
      py      :     0.005237
 16 S s       :     5.844638  s :     5.844638
      pz      :     3.405177  p :     9.929264
      px      :     3.525436
      py      :     2.998652
      dz2     :     0.013684  d :     0.108322
      dxz     :     0.014960
      dyz     :     0.037144
      dx2y2   :     0.019417
      dxy     :     0.023117
 17 C s       :     3.160883  s :     3.160883
      pz      :     0.987858  p :     2.898098
      px      :     1.031323
      py      :     0.878917
      dz2     :     0.007841  d :     0.034499
      dxz     :     0.004978
      dyz     :     0.010009
      dx2y2   :     0.005249
      dxy     :     0.006422
 18 C s       :     3.188968  s :     3.188968
      pz      :     0.878904  p :     2.793745
      px      :     0.987379
      py      :     0.927463
      dz2     :     0.007472  d :     0.033735
      dxz     :     0.004689
      dyz     :     0.009401
      dx2y2   :     0.006359
      dxy     :     0.005814
 19 C s       :     3.061944  s :     3.061944
      pz      :     0.969718  p :     2.928803
      px      :     0.984322
      py      :     0.974762
      dz2     :     0.010973  d :     0.044019
      dxz     :     0.006548
      dyz     :     0.012454
      dx2y2   :     0.006261
      dxy     :     0.007781
 20 C s       :     3.050176  s :     3.050176
      pz      :     0.987043  p :     3.080413
      px      :     1.076004
      py      :     1.017367
      dz2     :     0.009483  d :     0.045119
      dxz     :     0.007385
      dyz     :     0.013851
      dx2y2   :     0.007885
      dxy     :     0.006515
 21 H s       :     0.958947  s :     0.958947
      pz      :     0.008821  p :     0.023424
      px      :     0.005644
      py      :     0.008958
 22 C s       :     2.993399  s :     2.993399
      pz      :     0.975947  p :     2.943237
      px      :     0.960297
      py      :     1.006994
      dz2     :     0.007471  d :     0.034819
      dxz     :     0.008500
      dyz     :     0.004448
      dx2y2   :     0.008944
      dxy     :     0.005455
 23 H s       :     0.936355  s :     0.936355
      pz      :     0.009192  p :     0.020326
      px      :     0.005973
      py      :     0.005161
 24 H s       :     0.924301  s :     0.924301
      pz      :     0.003356  p :     0.021398
      px      :     0.003794
      py      :     0.014248
 25 C s       :     3.025866  s :     3.025866
      pz      :     1.005531  p :     3.014337
      px      :     0.968171
      py      :     1.040636
      dz2     :     0.007347  d :     0.037734
      dxz     :     0.008121
      dyz     :     0.008319
      dx2y2   :     0.006368
      dxy     :     0.007579
 26 H s       :     0.962630  s :     0.962630
      pz      :     0.007134  p :     0.025853
      px      :     0.007240
      py      :     0.011478
 27 H s       :     0.941496  s :     0.941496
      pz      :     0.006823  p :     0.022120
      px      :     0.004294
      py      :     0.011003
 28 C s       :     2.980155  s :     2.980155
      pz      :     0.979612  p :     3.012824
      px      :     0.984129
      py      :     1.049082
      dz2     :     0.007303  d :     0.028683
      dxz     :     0.007611
      dyz     :     0.003968
      dx2y2   :     0.002110
      dxy     :     0.007692
 29 H s       :     0.944937  s :     0.944937
      pz      :     0.008997  p :     0.024709
      px      :     0.010415
      py      :     0.005296
 30 H s       :     0.949276  s :     0.949276
      pz      :     0.004512  p :     0.024931
      px      :     0.009945
      py      :     0.010474
 31 H s       :     0.952774  s :     0.952774
      pz      :     0.004532  p :     0.024343
      px      :     0.007837
      py      :     0.011974
 32 H s       :     0.921540  s :     0.921540
      pz      :     0.006707  p :     0.024012
      px      :     0.004034
      py      :     0.013270
 33 H s       :     0.910252  s :     0.910252
      pz      :     0.004923  p :     0.023527
      px      :     0.007126
      py      :     0.011478


                     *******************************
                     * LOEWDIN POPULATION ANALYSIS *
                     *******************************

----------------------
LOEWDIN ATOMIC CHARGES
----------------------
   0 S :    0.394729
   1 C :   -0.182354
   2 C :   -0.064139
   3 C :   -0.068852
   4 C :   -0.201918
   5 H :    0.028834
   6 C :   -0.030641
   7 H :    0.027839
   8 H :    0.040659
   9 C :   -0.048275
  10 H :    0.023732
  11 H :    0.027829
  12 C :   -0.071147
  13 H :    0.030187
  14 H :    0.024762
  15 H :    0.019856
  16 S :    0.414082
  17 C :   -0.186133
  18 C :   -0.067045
  19 C :   -0.053165
  20 C :   -0.201779
  21 H :    0.031501
  22 C :   -0.034440
  23 H :    0.036778
  24 H :    0.041876
  25 C :   -0.051934
  26 H :    0.019554
  27 H :    0.026374
  28 C :   -0.066150
  29 H :    0.023460
  30 H :    0.028480
  31 H :    0.028227
  32 H :    0.030661
  33 H :    0.028551

-------------------------------
LOEWDIN REDUCED ORBITAL CHARGES
-------------------------------
  0 S s       :     5.509216  s :     5.509216
      pz      :     3.563843  p :     9.965632
      px      :     3.368010
      py      :     3.033779
      dz2     :     0.018307  d :     0.130422
      dxz     :     0.015396
      dyz     :     0.023893
      dx2y2   :     0.016674
      dxy     :     0.056152
  1 C s       :     2.936488  s :     2.936488
      pz      :     1.096990  p :     3.167589
      px      :     1.038228
      py      :     1.032371
      dz2     :     0.005590  d :     0.078277
      dxz     :     0.015825
      dyz     :     0.006309
      dx2y2   :     0.019672
      dxy     :     0.030881
  2 C s       :     2.862082  s :     2.862082
      pz      :     0.985103  p :     3.093059
      px      :     1.063494
      py      :     1.044463
      dz2     :     0.010723  d :     0.108997
      dxz     :     0.019736
      dyz     :     0.012895
      dx2y2   :     0.037792
      dxy     :     0.027852
  3 C s       :     2.865522  s :     2.865522
      pz      :     1.028784  p :     3.112335
      px      :     1.050732
      py      :     1.032819
      dz2     :     0.008219  d :     0.090996
      dxz     :     0.009778
      dyz     :     0.012517
      dx2y2   :     0.029728
      dxy     :     0.030754
  4 C s       :     2.899854  s :     2.899854
      pz      :     1.060653  p :     3.189077
      px      :     1.077504
      py      :     1.050920
      dz2     :     0.008462  d :     0.112986
      dxz     :     0.019184
      dyz     :     0.012041
      dx2y2   :     0.029706
      dxy     :     0.043592
  5 H s       :     0.900601  s :     0.900601
      pz      :     0.016089  p :     0.070564
      px      :     0.034198
      py      :     0.020277
  6 C s       :     2.816288  s :     2.816288
      pz      :     1.050383  p :     3.121836
      px      :     1.011859
      py      :     1.059595
      dz2     :     0.025068  d :     0.092516
      dxz     :     0.019798
      dyz     :     0.005925
      dx2y2   :     0.026198
      dxy     :     0.015528
  7 H s       :     0.900984  s :     0.900984
      pz      :     0.015266  p :     0.071176
      px      :     0.014782
      py      :     0.041128
  8 H s       :     0.892755  s :     0.892755
      pz      :     0.038471  p :     0.066586
      px      :     0.012982
      py      :     0.015133
  9 C s       :     2.831194  s :     2.831194
      pz      :     1.028261  p :     3.127227
      px      :     1.039639
      py      :     1.059327
      dz2     :     0.023888  d :     0.089853
      dxz     :     0.019661
      dyz     :     0.011197
      dx2y2   :     0.016806
      dxy     :     0.018301
 10 H s       :     0.910310  s :     0.910310
      pz      :     0.014359  p :     0.065959
      px      :     0.015088
      py      :     0.036512
 11 H s       :     0.903947  s :     0.903947
      pz      :     0.018146  p :     0.068224
      px      :     0.028481
      py      :     0.021596
 12 C s       :     2.852245  s :     2.852245
      pz      :     1.021502  p :     3.151127
      px      :     1.068587
      py      :     1.061038
      dz2     :     0.016424  d :     0.067775
      dxz     :     0.014486
      dyz     :     0.012919
      dx2y2   :     0.011152
      dxy     :     0.012794
 13 H s       :     0.911530  s :     0.911530
      pz      :     0.011108  p :     0.058283
      px      :     0.017372
      py      :     0.029803
 14 H s       :     0.912900  s :     0.912900
      pz      :     0.019393  p :     0.062338
      px      :     0.018679
      py      :     0.024266
 15 H s       :     0.908657  s :     0.908657
      pz      :     0.019591  p :     0.071487
      px      :     0.037299
      py      :     0.014597
 16 S s       :     5.507083  s :     5.507083
      pz      :     3.425687  p :     9.945133
      px      :     3.510282
      py      :     3.009164
      dz2     :     0.014842  d :     0.133702
      dxz     :     0.017104
      dyz     :     0.047890
      dx2y2   :     0.025222
      dxy     :     0.028644
 17 C s       :     2.936594  s :     2.936594
      pz      :     1.076312  p :     3.168562
      px      :     1.076319
      py      :     1.015931
      dz2     :     0.018755  d :     0.080977
      dxz     :     0.011910
      dyz     :     0.024470
      dx2y2   :     0.011271
      dxy     :     0.014571
 18 C s       :     2.871336  s :     2.871336
      pz      :     1.038380  p :     3.107634
      px      :     1.030283
      py      :     1.038971
      dz2     :     0.020159  d :     0.088075
      dxz     :     0.012600
      dyz     :     0.025567
      dx2y2   :     0.016575
      dxy     :     0.013174
 19 C s       :     2.858360  s :     2.858360
      pz      :     1.042065  p :     3.084904
      px      :     0.985907
      py      :     1.056932
      dz2     :     0.027381  d :     0.109901
      dxz     :     0.014737
      dyz     :     0.034117
      dx2y2   :     0.016078
      dxy     :     0.017589
 20 C s       :     2.897446  s :     2.897446
      pz      :     1.059139  p :     3.194128
      px      :     1.088267
      py      :     1.046722
      dz2     :     0.023098  d :     0.110204
      dxz     :     0.016563
      dyz     :     0.035303
      dx2y2   :     0.019949
      dxy     :     0.015292
 21 H s       :     0.898661  s :     0.898661
      pz      :     0.026291  p :     0.069838
      px      :     0.017074
      py      :     0.026473
 22 C s       :     2.845388  s :     2.845388
      pz      :     1.020936  p :     3.102683
      px      :     1.025370
      py      :     1.056378
      dz2     :     0.019022  d :     0.086368
      dxz     :     0.021363
      dyz     :     0.011177
      dx2y2   :     0.023249
      dxy     :     0.011557
 23 H s       :     0.905216  s :     0.905216
      pz      :     0.026061  p :     0.058006
      px      :     0.017569
      py      :     0.014376
 24 H s       :     0.896638  s :     0.896638
      pz      :     0.010337  p :     0.061487
      px      :     0.011162
      py      :     0.039988
 25 C s       :     2.820272  s :     2.820272
      pz      :     1.043817  p :     3.139049
      px      :     1.019031
      py      :     1.076201
      dz2     :     0.019371  d :     0.092613
      dxz     :     0.018210
      dyz     :     0.020389
      dx2y2   :     0.017869
      dxy     :     0.016774
 26 H s       :     0.904623  s :     0.904623
      pz      :     0.021364  p :     0.075823
      px      :     0.022577
      py      :     0.031882
 27 H s       :     0.908772  s :     0.908772
      pz      :     0.020917  p :     0.064854
      px      :     0.014679
      py      :     0.029258
 28 C s       :     2.822683  s :     2.822683
      pz      :     1.033355  p :     3.168637
      px      :     1.045570
      py      :     1.089712
      dz2     :     0.019503  d :     0.074830
      dxz     :     0.021604
      dyz     :     0.007738
      dx2y2   :     0.005345
      dxy     :     0.020641
 29 H s       :     0.907570  s :     0.907570
      pz      :     0.026279  p :     0.068970
      px      :     0.028090
      py      :     0.014601
 30 H s       :     0.903690  s :     0.903690
      pz      :     0.013431  p :     0.067830
      px      :     0.027364
      py      :     0.027034
 31 H s       :     0.904548  s :     0.904548
      pz      :     0.014050  p :     0.067225
      px      :     0.021124
      py      :     0.032052
 32 H s       :     0.895253  s :     0.895253
      pz      :     0.021179  p :     0.074085
      px      :     0.012843
      py      :     0.040063
 33 H s       :     0.897108  s :     0.897108
      pz      :     0.016236  p :     0.074341
      px      :     0.021849
      py      :     0.036256


                      *****************************
                      * MAYER POPULATION ANALYSIS *
                      *****************************

  NA   - Mulliken gross atomic population
  ZA   - Total nuclear charge
  QA   - Mulliken gross atomic charge
  VA   - Mayer's total valence
  BVA  - Mayer's bonded valence
  FA   - Mayer's free valence

  ATOM       NA         ZA         QA         VA         BVA        FA
  0 S     15.9043    16.0000     0.0957     2.4725     2.4725     0.0000
  1 C      6.1490     6.0000    -0.1490     3.8391     3.8391     0.0000
  2 C      6.0676     6.0000    -0.0676     3.9804     3.9804    -0.0000
  3 C      5.9736     6.0000     0.0264     3.9206     3.9206     0.0000
  4 C      6.1561     6.0000    -0.1561     3.9217     3.9217     0.0000
  5 H      0.9871     1.0000     0.0129     1.0065     1.0065     0.0000
  6 C      5.9011     6.0000     0.0989     3.9600     3.9600    -0.0000
  7 H      0.9898     1.0000     0.0102     0.9909     0.9909     0.0000
  8 H      0.9497     1.0000     0.0503     0.9828     0.9828     0.0000
  9 C      6.0929     6.0000    -0.0929     4.1076     4.1076    -0.0000
 10 H      0.9672     1.0000     0.0328     0.9790     0.9790    -0.0000
 11 H      0.9675     1.0000     0.0325     0.9769     0.9769     0.0000
 12 C      6.0928     6.0000    -0.0928     3.9882     3.9882     0.0000
 13 H      0.9602     1.0000     0.0398     0.9893     0.9893     0.0000
 14 H      0.9654     1.0000     0.0346     0.9919     0.9919     0.0000
 15 H      0.9649     1.0000     0.0351     0.9861     0.9861     0.0000
 16 S     15.8822    16.0000     0.1178     2.4986     2.4986    -0.0000
 17 C      6.0935     6.0000    -0.0935     3.8117     3.8117     0.0000
 18 C      6.0164     6.0000    -0.0164     3.9254     3.9254     0.0000
 19 C      6.0348     6.0000    -0.0348     4.0627     4.0627     0.0000
 20 C      6.1757     6.0000    -0.1757     3.9222     3.9222     0.0000
 21 H      0.9824     1.0000     0.0176     0.9974     0.9974     0.0000
 22 C      5.9715     6.0000     0.0285     3.9670     3.9670     0.0000
 23 H      0.9567     1.0000     0.0433     0.9843     0.9843     0.0000
 24 H      0.9457     1.0000     0.0543     0.9835     0.9835     0.0000
 25 C      6.0779     6.0000    -0.0779     4.0666     4.0666    -0.0000
 26 H      0.9885     1.0000     0.0115     0.9845     0.9845    -0.0000
 27 H      0.9636     1.0000     0.0364     0.9872     0.9872    -0.0000
 28 C      6.0217     6.0000    -0.0217     3.9894     3.9894    -0.0000
 29 H      0.9696     1.0000     0.0304     1.0013     1.0013     0.0000
 30 H      0.9742     1.0000     0.0258     0.9869     0.9869    -0.0000
 31 H      0.9771     1.0000     0.0229     0.9868     0.9868    -0.0000
 32 H      0.9456     1.0000     0.0544     1.0031     1.0031     0.0000
 33 H      0.9338     1.0000     0.0662     0.9941     0.9941     0.0000

  Mayer bond orders larger than 0.100000
B(  0-S ,  1-C ) :   1.1243 B(  0-S ,  4-C ) :   1.1598 B(  1-C ,  2-C ) :   1.6111 
B(  1-C , 32-H ) :   0.9758 B(  2-C ,  3-C ) :   1.2394 B(  2-C ,  6-C ) :   1.0142 
B(  3-C ,  4-C ) :   1.5717 B(  3-C ,  5-H ) :   0.9915 B(  4-C , 20-C ) :   1.0305 
B(  6-C ,  7-H ) :   0.9344 B(  6-C ,  8-H ) :   0.9379 B(  6-C ,  9-C ) :   1.0850 
B(  9-C , 10-H ) :   0.9510 B(  9-C , 11-H ) :   0.9565 B(  9-C , 12-C ) :   1.0710 
B( 12-C , 13-H ) :   0.9756 B( 12-C , 14-H ) :   0.9738 B( 12-C , 15-H ) :   0.9771 
B( 16-S , 17-C ) :   1.1637 B( 16-S , 20-C ) :   1.1436 B( 17-C , 18-C ) :   1.5760 
B( 17-C , 20-C ) :   0.1002 B( 17-C , 33-H ) :   0.9719 B( 18-C , 19-C ) :   1.2486 
B( 18-C , 21-H ) :   0.9877 B( 19-C , 20-C ) :   1.6015 B( 19-C , 22-C ) :   1.0541 
B( 22-C , 23-H ) :   0.9382 B( 22-C , 24-H ) :   0.9329 B( 22-C , 25-C ) :   1.0488 
B( 25-C , 26-H ) :   0.9564 B( 25-C , 27-H ) :   0.9661 B( 25-C , 28-C ) :   1.0679 
B( 28-C , 29-H ) :   0.9782 B( 28-C , 30-H ) :   0.9788 B( 28-C , 31-H ) :   0.9734 


-------
TIMINGS
-------

Total SCF time: 0 days 0 hours 0 min 19 sec 

Total time                  ....      19.264 sec
Sum of individual times     ....      18.435 sec  ( 95.7%)

Fock matrix formation       ....      16.784 sec  ( 87.1%)
  XC integration            ....       1.397 sec  (  8.3% of F)
    Basis function eval.    ....       0.138 sec  (  9.8% of XC)
    Density eval.           ....       0.104 sec  (  7.4% of XC)
    XC-Functional eval.     ....       0.110 sec  (  7.8% of XC)
    XC-Potential eval.      ....       0.117 sec  (  8.4% of XC)
Diagonalization             ....       0.132 sec  (  0.7%)
Density matrix formation    ....       0.022 sec  (  0.1%)
Population analysis         ....       0.054 sec  (  0.3%)
Initial guess               ....       0.175 sec  (  0.9%)
Orbital Transformation      ....       0.000 sec  (  0.0%)
Orbital Orthonormalization  ....       0.000 sec  (  0.0%)
DIIS solution               ....       0.158 sec  (  0.8%)
SOSCF solution              ....       0.105 sec  (  0.5%)
Grid generation             ....       1.005 sec  (  5.2%)


-------------------------------------------------------------------------------
                          DFT DISPERSION CORRECTION                            
                                                                               
                              DFTD3 V3.1  Rev 1                                
                              USING zero damping                               
-------------------------------------------------------------------------------
The omegaB97X-D3 functional is recognized. Fit by Chai et al.
Active option DFTDOPT                   ...         3   

molecular C6(AA) [au] = 14169.032396 


            DFT-D V3
 parameters
 s6 scaling factor         :     1.0000 
 rs6 scaling factor        :     1.2810 
 s8 scaling factor         :     1.0000 
 rs8 scaling factor        :     1.0940 
 Damping factor alpha6     :    14.0000 
 Damping factor alpha8     :    16.0000 
 ad hoc parameters k1-k3   :    16.0000     1.3333    -4.0000 

 Edisp/kcal,au: -9.232566099534  -0.014713029040 
 E6   /kcal   :  -4.296977046 
 E8   /kcal   :  -4.935589054 
 % E8         :  53.458475147 

-------------------------   ----------------
Dispersion correction           -0.014713029
-------------------------   ----------------


-------------------------   --------------------
FINAL SINGLE POINT ENERGY     -1339.881749233998
-------------------------   --------------------


                            ***************************************
                            *     ORCA property calculations      *
                            ***************************************

                                    ---------------------
                                    Active property flags
                                    ---------------------
   (+) Dipole Moment


------------------------------------------------------------------------------
                       ORCA ELECTRIC PROPERTIES CALCULATION
------------------------------------------------------------------------------

Dipole Moment Calculation                       ... on
Quadrupole Moment Calculation                   ... off
Polarizability Calculation                      ... off
GBWName                                         ... config_2786.gbw
Electron density file                           ... config_2786.scfp
The origin for moment calculation is the CENTER OF MASS  = (-249.948040, 47.850112 -30.664892)

-------------
DIPOLE MOMENT
-------------
                                X             Y             Z
Electronic contribution:     25.47662       6.44550     -15.88105
Nuclear contribution   :    -26.08195      -6.45714      16.01087
                        -----------------------------------------
Total Dipole Moment    :     -0.60534      -0.01164       0.12982
                        -----------------------------------------
Magnitude (a.u.)       :      0.61921
Magnitude (Debye)      :      1.57390



--------------------
Rotational spectrum 
--------------------
 
Rotational constants in cm-1:     0.016201     0.010389     0.007121 
Rotational constants in MHz :   485.689026   311.456465   213.471277 

 Dipole components along the rotational axes: 
x,y,z [a.u.] :    -0.234300     0.504530    -0.271979 
x,y,z [Debye]:    -0.595544     1.282414    -0.691315 

 

Timings for individual modules:

Sum of individual times         ...       20.443 sec (=   0.341 min)
GTO integral calculation        ...        0.782 sec (=   0.013 min)   3.8 %
SCF iterations                  ...       19.661 sec (=   0.328 min)  96.2 %
                             ****ORCA TERMINATED NORMALLY****
TOTAL RUN TIME: 0 days 0 hours 0 minutes 21 seconds 140 msec
