
                                 *****************
                                 * O   R   C   A *
                                 *****************

           --- An Ab Initio, DFT and Semiempirical electronic structure package ---

                  #######################################################
                  #                        -***-                        #
                  #          Department of theory and spectroscopy      #
                  #               Directorship: Frank Neese             #
                  #        Max Planck Institute fuer Kohlenforschung    #
                  #                Kaiser Wilhelm Platz 1               #
                  #                 D-45470 Muelheim/Ruhr               #
                  #                      Germany                        #
                  #                                                     #
                  #                  All rights reserved                #
                  #                        -***-                        #
                  #######################################################


                         Program Version 4.2.1 -  RELEASE  -


 With contributions from (in alphabetic order):
   Daniel Aravena         : Magnetic Suceptibility
   Michael Atanasov       : Ab Initio Ligand Field Theory (pilot matlab implementation)
   Alexander A. Auer      : GIAO ZORA, VPT2
   Ute Becker             : Parallelization
   Giovanni Bistoni       : ED, misc. LED, open-shell LED, HFLD
   Martin Brehm           : Molecular dynamics
   Dmytro Bykov           : SCF Hessian
   Vijay G. Chilkuri      : MRCI spin determinant printing, contributions to CSF-ICE
   Dipayan Datta          : RHF DLPNO-CCSD density
   Achintya Kumar Dutta   : EOM-CC, STEOM-CC
   Dmitry Ganyushin       : Spin-Orbit,Spin-Spin,Magnetic field MRCI
   Miquel Garcia          : C-PCM Hessian, Gaussian charge scheme
   Yang Guo               : DLPNO-NEVPT2, CIM, IAO-localization
   Andreas Hansen         : Spin unrestricted coupled pair/coupled cluster methods
   Benjamin Helmich-Paris : CASSCF linear response (MC-RPA)
   Lee Huntington         : MR-EOM, pCC
   Robert Izsak           : Overlap fitted RIJCOSX, COSX-SCS-MP3, EOM
   Christian Kollmar      : KDIIS, OOCD, Brueckner-CCSD(T), CCSD density
   Simone Kossmann        : Meta GGA functionals, TD-DFT gradient, OOMP2, MP2 Hessian
   Martin Krupicka        : AUTO-CI
   Lucas Lang             : DCDCAS
   Dagmar Lenk            : GEPOL surface, SMD
   Dimitrios Liakos       : Extrapolation schemes; Compound Job, initial MDCI parallelization
   Dimitrios Manganas     : Further ROCIS development; embedding schemes
   Dimitrios Pantazis     : SARC Basis sets
   Taras Petrenko         : DFT Hessian,TD-DFT gradient, ASA, ECA, R-Raman, ABS, FL, XAS/XES, NRVS
   Peter Pinski           : DLPNO-MP2, DLPNO-MP2 Gradient
   Christoph Reimann      : Effective Core Potentials
   Marius Retegan         : Local ZFS, SOC
   Christoph Riplinger    : Optimizer, TS searches, QM/MM, DLPNO-CCSD(T), (RO)-DLPNO pert. Triples
   Tobias Risthaus        : Range-separated hybrids, TD-DFT gradient, RPA, STAB
   Michael Roemelt        : Original ROCIS implementation
   Masaaki Saitow         : Open-shell DLPNO-CCSD energy and density
   Barbara Sandhoefer     : DKH picture change effects
   Avijit Sen             : IP-ROCIS
   Kantharuban Sivalingam : CASSCF convergence, NEVPT2, FIC-MRCI
   Bernardo de Souza      : ESD, SOC TD-DFT
   Georgi Stoychev        : AutoAux, RI-MP2 NMR
   Willem Van den Heuvel  : Paramagnetic NMR
   Boris Wezisla          : Elementary symmetry handling
   Frank Wennmohs         : Technical directorship


 We gratefully acknowledge several colleagues who have allowed us to
 interface, adapt or use parts of their codes:
   Stefan Grimme, W. Hujo, H. Kruse,             : VdW corrections, initial TS optimization,
                  C. Bannwarth                     DFT functionals, gCP, sTDA/sTD-DF
   Ed Valeev, F. Pavosevic, A. Kumar             : LibInt (2-el integral package), F12 methods
   Garnet Chan, S. Sharma, J. Yang, R. Olivares  : DMRG
   Ulf Ekstrom                                   : XCFun DFT Library
   Mihaly Kallay                                 : mrcc  (arbitrary order and MRCC methods)
   Andreas Klamt, Michael Diedenhofen            : otool_cosmo (COSMO solvation model)
   Jiri Pittner, Ondrej Demel                    : Mk-CCSD
   Frank Weinhold                                : gennbo (NPA and NBO analysis)
   Christopher J. Cramer and Donald G. Truhlar   : smd solvation model
   Lars Goerigk                                  : TD-DFT with DH, B97 family of functionals
   V. Asgeirsson, H. Jonsson                     : NEB implementation
   FAccTs GmbH                                   : IRC, NEB, NEB-TS, Multilevel, MM, QM/MM, CI optimization
   S Lehtola, MJT Oliveira, MAL Marques          : LibXC Library


 Your calculation uses the libint2 library for the computation of 2-el integrals
 For citations please refer to: http://libint.valeyev.net

 Your ORCA version has been built with support for libXC version: 4.2.3
 For citations please refer to: https://tddft.org/programs/libxc/

 This ORCA versions uses:
   CBLAS   interface :  Fast vector & matrix operations
   LAPACKE interface :  Fast linear algebra routines
   SCALAPACK package :  Parallel linear algebra routines


Your calculation utilizes the atom-pairwise dispersion correction
with the zero-damping scheme (D30)
Cite in your paper:
S.Grimme, J.Antony, S.Ehrlich and H.Krieg, J.Chem.Phys., 132, (2010), 154104 
   

XCFun DFT library Copyright 2009-2010 Ulf Ekstrom and contributors.
See http://admol.org/xcfun for more information. This is free soft-
ware; see the source code for copying conditions. There is ABSOLUTELY
NO WARRANTY; not even for MERCHANTABILITY or FITNESS FOR A PARTICULAR
PURPOSE. For details see the documentation. Scientific users of this 
library should cite U. Ekstrom, L. Visscher, R. Bast, A. J. Thorvald-
sen and K. Ruud; J.Chem.Theor.Comp. 2010, DOI: 10.1021/ct100117s
XCFun Version 0.99 
----- Orbital basis set information -----
Your calculation utilizes the basis: def2-SVP
   F. Weigend and R. Ahlrichs, Phys. Chem. Chem. Phys. 7, 3297 (2005).

================================================================================
                                        WARNINGS
                       Please study these warnings very carefully!
================================================================================


INFO   : the flag for use of LIBINT has been found!

================================================================================
                                       INPUT FILE
================================================================================
NAME = config_7759.inp
|  1> ! wB97X-D3 SP def2-SVP
|  2> %pal
|  3> nprocs 24
|  4> end
|  5> 
|  6> * xyz 0 1
|  7> S 	 -85.1616 	 -32.2368 	 -64.8133 	 
|  8> C 	 -84.4004 	 -33.3166 	 -65.9794 	 
|  9> C 	 -84.9624 	 -34.5894 	 -65.9263 	 
| 10> C 	 -86.013 	 -34.6182 	 -64.9367 	 
| 11> C 	 -86.2571 	 -33.445 	 -64.2248 	 
| 12> H 	 -86.7447 	 -35.4243 	 -64.7384 	 
| 13> C 	 -84.6891 	 -35.7324 	 -66.8592 	 
| 14> H 	 -85.0972 	 -36.5851 	 -66.4014 	 
| 15> H 	 -83.6371 	 -35.9524 	 -66.815 	 
| 16> C 	 -85.0623 	 -35.663 	 -68.3992 	 
| 17> H 	 -84.257 	 -35.067 	 -68.8522 	 
| 18> H 	 -85.0215 	 -36.6532 	 -68.8855 	 
| 19> C 	 -86.4609 	 -35.0356 	 -68.6594 	 
| 20> H 	 -87.2838 	 -35.4526 	 -68.0272 	 
| 21> H 	 -86.4154 	 -33.9824 	 -68.6336 	 
| 22> H 	 -86.7499 	 -35.3368 	 -69.7145 	 
| 23> S 	 -86.6761 	 -33.6129 	 -61.5212 	 
| 24> C 	 -88.2583 	 -33.2536 	 -60.8306 	 
| 25> C 	 -89.1172 	 -32.7986 	 -61.8319 	 
| 26> C 	 -88.588 	 -32.8713 	 -63.15 	 
| 27> C 	 -87.2773 	 -33.2964 	 -63.1114 	 
| 28> H 	 -90.117 	 -32.4278 	 -61.5167 	 
| 29> C 	 -89.3438 	 -32.4635 	 -64.4483 	 
| 30> H 	 -89.4771 	 -33.3689 	 -64.9777 	 
| 31> H 	 -88.6311 	 -31.8056 	 -64.9499 	 
| 32> C 	 -90.7266 	 -31.7327 	 -64.2001 	 
| 33> H 	 -91.3685 	 -32.3977 	 -63.6374 	 
| 34> H 	 -91.3381 	 -31.6621 	 -65.1405 	 
| 35> C 	 -90.6277 	 -30.3506 	 -63.5668 	 
| 36> H 	 -91.666 	 -29.9466 	 -63.5871 	 
| 37> H 	 -89.9716 	 -29.7864 	 -64.1109 	 
| 38> H 	 -90.2245 	 -30.4345 	 -62.5205 	 
| 39> H 	 -83.5738 	 -32.999 	 -66.6168 	 
| 40> H 	 -88.6135 	 -33.1584 	 -59.7985 	 
| 41> *
| 42> 
| 43>                          ****END OF INPUT****
================================================================================

                       ****************************
                       * Single Point Calculation *
                       ****************************

---------------------------------
CARTESIAN COORDINATES (ANGSTROEM)
---------------------------------
  S    -85.161600  -32.236800  -64.813300
  C    -84.400400  -33.316600  -65.979400
  C    -84.962400  -34.589400  -65.926300
  C    -86.013000  -34.618200  -64.936700
  C    -86.257100  -33.445000  -64.224800
  H    -86.744700  -35.424300  -64.738400
  C    -84.689100  -35.732400  -66.859200
  H    -85.097200  -36.585100  -66.401400
  H    -83.637100  -35.952400  -66.815000
  C    -85.062300  -35.663000  -68.399200
  H    -84.257000  -35.067000  -68.852200
  H    -85.021500  -36.653200  -68.885500
  C    -86.460900  -35.035600  -68.659400
  H    -87.283800  -35.452600  -68.027200
  H    -86.415400  -33.982400  -68.633600
  H    -86.749900  -35.336800  -69.714500
  S    -86.676100  -33.612900  -61.521200
  C    -88.258300  -33.253600  -60.830600
  C    -89.117200  -32.798600  -61.831900
  C    -88.588000  -32.871300  -63.150000
  C    -87.277300  -33.296400  -63.111400
  H    -90.117000  -32.427800  -61.516700
  C    -89.343800  -32.463500  -64.448300
  H    -89.477100  -33.368900  -64.977700
  H    -88.631100  -31.805600  -64.949900
  C    -90.726600  -31.732700  -64.200100
  H    -91.368500  -32.397700  -63.637400
  H    -91.338100  -31.662100  -65.140500
  C    -90.627700  -30.350600  -63.566800
  H    -91.666000  -29.946600  -63.587100
  H    -89.971600  -29.786400  -64.110900
  H    -90.224500  -30.434500  -62.520500
  H    -83.573800  -32.999000  -66.616800
  H    -88.613500  -33.158400  -59.798500

----------------------------
CARTESIAN COORDINATES (A.U.)
----------------------------
  NO LB      ZA    FRAG     MASS         X           Y           Z
   0 S    16.0000    0    32.060  -160.932101  -60.918723  -122.479387
   1 C     6.0000    0    12.011  -159.493642  -62.959250  -124.682996
   2 C     6.0000    0    12.011  -160.555668  -65.364493  -124.582652
   3 C     6.0000    0    12.011  -162.541014  -65.418917  -122.712579
   4 C     6.0000    0    12.011  -163.002296  -63.201891  -121.367283
   5 H     1.0000    0     1.008  -163.923727  -66.942225  -122.337846
   6 C     6.0000    0    12.011  -160.039206  -67.524450  -126.345578
   7 H     1.0000    0     1.008  -160.810403  -69.135820  -125.480461
   8 H     1.0000    0     1.008  -158.051214  -67.940190  -126.262052
   9 C     6.0000    0    12.011  -160.744451  -67.393303  -129.255756
  10 H     1.0000    0     1.008  -159.222655  -66.267026  -130.111802
  11 H     1.0000    0     1.008  -160.667350  -69.264510  -130.174730
  12 C     6.0000    0    12.011  -163.387422  -66.207689  -129.747463
  13 H     1.0000    0     1.008  -164.942478  -66.995705  -128.552778
  14 H     1.0000    0     1.008  -163.301440  -64.217429  -129.698708
  15 H     1.0000    0     1.008  -163.933553  -66.776874  -131.741313
  16 S    16.0000    0    32.060  -163.794091  -63.519176  -116.258219
  17 C     6.0000    0    12.011  -166.784016  -62.840197  -114.953175
  18 C     6.0000    0    12.011  -168.407102  -61.980372  -116.845357
  19 C     6.0000    0    12.011  -167.407059  -62.117755  -119.336205
  20 C     6.0000    0    12.011  -164.930195  -62.921077  -119.263262
  21 H     1.0000    0     1.008  -170.296450  -61.279661  -116.249716
  22 C     6.0000    0    12.011  -168.835314  -61.347124  -121.789637
  23 H     1.0000    0     1.008  -169.087214  -63.058082  -122.790058
  24 H     1.0000    0     1.008  -167.488506  -60.103874  -122.737523
  25 C     6.0000    0    12.011  -171.448427  -59.966112  -121.320607
  26 H     1.0000    0     1.008  -172.661442  -61.222780  -120.257258
  27 H     1.0000    0     1.008  -172.603995  -59.832698  -123.097705
  28 C     6.0000    0    12.011  -171.261533  -57.354322  -120.123843
  29 H     1.0000    0     1.008  -173.223636  -56.590873  -120.162205
  30 H     1.0000    0     1.008  -170.021684  -56.288139  -121.152043
  31 H     1.0000    0     1.008  -170.499596  -57.512870  -118.146623
  32 H     1.0000    0     1.008  -157.931594  -62.359073  -125.887508
  33 H     1.0000    0     1.008  -167.455247  -62.660295  -113.002788

--------------------------------
INTERNAL COORDINATES (ANGSTROEM)
--------------------------------
 S      0   0   0     0.000000000000     0.00000000     0.00000000
 C      1   0   0     1.762152856593     0.00000000     0.00000000
 C      2   1   0     1.392366133601   111.13456222     0.00000000
 C      3   2   1     1.443571252138   109.76320122     0.78372644
 C      4   3   2     1.393838103942   117.43815599   358.86588350
 H      4   3   2     1.106573535740   128.21464493   171.07319504
 C      3   2   1     1.500481356099   126.80640737   172.77449630
 H      7   3   2     1.050344581554   106.06090233   167.03974153
 H      7   3   2     1.075666137796   107.96188494    59.11373222
 C      7   3   2     1.586094133398   121.83517959   295.98914792
 H     10   7   3     1.099514933960   104.56103048    79.06580002
 H     10   7   3     1.103924078005   112.31964260   193.69449591
 C     10   7   3     1.554804412137   113.06660670   317.23555697
 H     13  10   7     1.118360518795   114.63412071   311.60976012
 H     13  10   7     1.054498046466   111.10748033    81.20062852
 H     13  10   7     1.134671075687   106.11769183   197.62488062
 S      5   4   3     2.741022504468   118.61927415   223.19987447
 C     17   5   4     1.763343894423   120.72869458   247.89705350
 C     18  17   5     1.395469777530   109.73579905   355.12260757
 C     19  18  17     1.422225558763   114.79141432     6.60065922
 C     20  19  18     1.378453648114   110.09730301   355.52829991
 H     19  18  17     1.111954909158   117.30607475   186.60354350
 C     20  19  18     1.556636556811   125.37488987   178.44453754
 H     23  20  19     1.057252292502   104.74398643   246.56577523
 H     23  20  19     1.091959825268   102.94783399   129.74438352
 C     23  20  19     1.583605923202   114.46533260     8.75982629
 H     26  23  20     1.082077585019   108.41438362   300.43849945
 H     26  23  20     1.123952298810   111.89616189   192.66333845
 C     26  23  20     1.523499428946   115.28454311    67.31204872
 H     29  26  23     1.114313681151   105.12018616   173.15698632
 H     29  26  23     1.022171052222   108.73136221    52.07199108
 H     29  26  23     1.124434586804   110.02255913   294.17749138
 H      2   1   3     1.091061904752   122.37689921   182.02707059
 H     18  17   5     1.095655278817   132.64978165   187.25826409

---------------------------
INTERNAL COORDINATES (A.U.)
---------------------------
 S      0   0   0     0.000000000000     0.00000000     0.00000000
 C      1   0   0     3.329986305068     0.00000000     0.00000000
 C      2   1   0     2.631190670653   111.13456222     0.00000000
 C      3   2   1     2.727954321343   109.76320122     0.78372644
 C      4   3   2     2.633972291474   117.43815599   358.86588350
 H      4   3   2     2.091120929593   128.21464493   171.07319504
 C      3   2   1     2.835498832081   126.80640737   172.77449630
 H      7   3   2     1.984863605385   106.06090233   167.03974153
 H      7   3   2     2.032714411966   107.96188494    59.11373222
 C      7   3   2     2.997283534742   121.83517959   295.98914792
 H     10   7   3     2.077782105340   104.56103048    79.06580002
 H     10   7   3     2.086114180072   112.31964260   193.69449591
 C     10   7   3     2.938154530751   113.06660670   317.23555697
 H     13  10   7     2.113395099513   114.63412071   311.60976012
 H     13  10   7     1.992712516575   111.10748033    81.20062852
 H     13  10   7     2.144217585130   106.11769183   197.62488062
 S      5   4   3     5.179781860359   118.61927415   223.19987447
 C     17   5   4     3.332237040382   120.72869458   247.89705350
 C     18  17   5     2.637055707696   109.73579905   355.12260757
 C     19  18  17     2.687616806726   114.79141432     6.60065922
 C     20  19  18     2.604899883241   110.09730301   355.52829991
 H     19  18  17     2.101290251577   117.30607475   186.60354350
 C     20  19  18     2.941616782423   125.37488987   178.44453754
 H     23  20  19     1.997917287289   104.74398643   246.56577523
 H     23  20  19     2.063505019002   102.94783399   129.74438352
 C     23  20  19     2.992581498907   114.46533260     8.75982629
 H     26  23  20     2.044830291340   108.41438362   300.43849945
 H     26  23  20     2.123962032342   111.89616189   192.66333845
 C     26  23  20     2.878996685894   115.28454311    67.31204872
 H     29  26  23     2.105747684657   105.12018616   173.15698632
 H     29  26  23     1.931623350721   108.73136221    52.07199108
 H     29  26  23     2.124873424568   110.02255913   294.17749138
 H      2   1   3     2.061808195135   122.37689921   182.02707059
 H     18  17   5     2.070488414150   132.64978165   187.25826409

---------------------
BASIS SET INFORMATION
---------------------
There are 3 groups of distinct atoms

 Group   1 Type S   : 10s7p1d contracted to 4s3p1d pattern {5311/511/1}
 Group   2 Type C   : 7s4p1d contracted to 3s2p1d pattern {511/31/1}
 Group   3 Type H   : 4s1p contracted to 2s1p pattern {31/1}

Atom   0S    basis set group =>   1
Atom   1C    basis set group =>   2
Atom   2C    basis set group =>   2
Atom   3C    basis set group =>   2
Atom   4C    basis set group =>   2
Atom   5H    basis set group =>   3
Atom   6C    basis set group =>   2
Atom   7H    basis set group =>   3
Atom   8H    basis set group =>   3
Atom   9C    basis set group =>   2
Atom  10H    basis set group =>   3
Atom  11H    basis set group =>   3
Atom  12C    basis set group =>   2
Atom  13H    basis set group =>   3
Atom  14H    basis set group =>   3
Atom  15H    basis set group =>   3
Atom  16S    basis set group =>   1
Atom  17C    basis set group =>   2
Atom  18C    basis set group =>   2
Atom  19C    basis set group =>   2
Atom  20C    basis set group =>   2
Atom  21H    basis set group =>   3
Atom  22C    basis set group =>   2
Atom  23H    basis set group =>   3
Atom  24H    basis set group =>   3
Atom  25C    basis set group =>   2
Atom  26H    basis set group =>   3
Atom  27H    basis set group =>   3
Atom  28C    basis set group =>   2
Atom  29H    basis set group =>   3
Atom  30H    basis set group =>   3
Atom  31H    basis set group =>   3
Atom  32H    basis set group =>   3
Atom  33H    basis set group =>   3


           ************************************************************
           *        Program running with 24 parallel MPI-processes    *
           *              working on a common directory               *
           ************************************************************
------------------------------------------------------------------------------
                           ORCA GTO INTEGRAL CALCULATION
------------------------------------------------------------------------------

                         BASIS SET STATISTICS AND STARTUP INFO

 # of primitive gaussian shells          ...  294
 # of primitive gaussian functions       ...  534
 # of contracted shells                  ...  154
 # of contracted basis functions         ...  322
 Highest angular momentum                ...    2
 Maximum contraction depth               ...    5
 Integral package used                   ... LIBINT
 Integral threshhold            Thresh   ...  1.000e-10
 Primitive cut-off              TCut     ...  1.000e-11


------------------------------ INTEGRAL EVALUATION ----------------------------


 * One electron integrals 
 Pre-screening matrix                    ... done
 Shell pair data                         ... done (   0.003 sec)



           ************************************************************
           *        Program running with 24 parallel MPI-processes    *
           *              working on a common directory               *
           ************************************************************
-------------------------------------------------------------------------------
                                 ORCA SCF
-------------------------------------------------------------------------------

------------
SCF SETTINGS
------------
Hamiltonian:
 Density Functional     Method          .... DFT(GTOs)
 Exchange Functional    Exchange        .... WB97X-D3
 Correlation Functional Correlation     .... WB97X-D3
 Gradients option       PostSCFGGA      .... off
 Hybrid DFT is turned on
   Fraction HF Exchange ScalHFX         ....  0.195728
   Scaling of DF-GGA-X  ScalDFX         ....  0.000000
   Scaling of DF-GGA-C  ScalDFC         ....  1.000000
   Scaling of DF-LDA-C  ScalLDAC        ....  1.000000
   Perturbative correction              ....  0.000000
   Density functional embedding theory  .... OFF
 Long-range corrected/Screened/Range-Separated Hybrid DFT is turned on
   Amount of maximum screened exact exchange              ....  0.804272
   Range separation parameter mu (erf(mu*r12)/r12)        ....  0.250000


General Settings:
 Integral files         IntName         .... config_7759
 Hartree-Fock type      HFTyp           .... RHF
 Total Charge           Charge          ....    0
 Multiplicity           Mult            ....    1
 Number of Electrons    NEL             ....  134
 Basis Dimension        Dim             ....  322
 Nuclear Repulsion      ENuc            ....   1273.0637052577 Eh

Convergence Acceleration:
 DIIS                   CNVDIIS         .... on
   Start iteration      DIISMaxIt       ....    12
   Startup error        DIISStart       ....  0.200000
   # of expansion vecs  DIISMaxEq       ....     5
   Bias factor          DIISBfac        ....   1.050
   Max. coefficient     DIISMaxC        ....  10.000
 Newton-Raphson         CNVNR           .... off
 SOSCF                  CNVSOSCF        .... on
   Start iteration      SOSCFMaxIt      ....   150
   Startup grad/error   SOSCFStart      ....  0.003300
 Level Shifting         CNVShift        .... on
   Level shift para.    LevelShift      ....    0.2500
   Turn off err/grad.   ShiftErr        ....    0.0010
 Zerner damping         CNVZerner       .... off
 Static damping         CNVDamp         .... on
   Fraction old density DampFac         ....    0.7000
   Max. Damping (<1)    DampMax         ....    0.9800
   Min. Damping (>=0)   DampMin         ....    0.0000
   Turn off err/grad.   DampErr         ....    0.1000
 Fernandez-Rico         CNVRico         .... off

SCF Procedure:
 Maximum # iterations   MaxIter         ....   125
 SCF integral mode      SCFMode         .... Direct
   Integral package                     .... LIBINT
 Reset frequency        DirectResetFreq ....    20
 Integral Threshold     Thresh          ....  1.000e-10 Eh
 Primitive CutOff       TCut            ....  1.000e-11 Eh

Convergence Tolerance:
 Convergence Check Mode ConvCheckMode   .... Total+1el-Energy
 Convergence forced     ConvForced      .... 0
 Energy Change          TolE            ....  1.000e-06 Eh
 1-El. energy change                    ....  1.000e-03 Eh
 Orbital Gradient       TolG            ....  5.000e-05
 Orbital Rotation angle TolX            ....  5.000e-05
 DIIS Error             TolErr          ....  1.000e-06


Diagonalization of the overlap matrix:
Smallest eigenvalue                        ... 7.124e-04
Time for diagonalization                   ...    0.014 sec
Threshold for overlap eigenvalues          ... 1.000e-08
Number of eigenvalues below threshold      ... 0
Time for construction of square roots      ...    0.027 sec
Total time needed                          ...    0.041 sec

-------------------
DFT GRID GENERATION
-------------------

General Integration Accuracy     IntAcc      ...  4.340
Radial Grid Type                 RadialGrid  ... Gauss-Chebyshev
Angular Grid (max. acc.)         AngularGrid ... Lebedev-110
Angular grid pruning method      GridPruning ... 3 (G Style)
Weight generation scheme         WeightScheme... Becke
Basis function cutoff            BFCut       ...    1.0000e-10
Integration weight cutoff        WCut        ...    1.0000e-14
Grids for H and He will be reduced by one unit

# of grid points (after initial pruning)     ...  41088 (   0.0 sec)
# of grid points (after weights+screening)   ...  37021 (   0.0 sec)
nearest neighbour list constructed           ...    0.0 sec
Grid point re-assignment to atoms done       ...    0.0 sec
Grid point division into batches done        ...    0.0 sec
Reduced shell lists constructed in    0.1 sec

Total number of grid points                  ...    37021
Total number of batches                      ...      594
Average number of points per batch           ...       62
Average number of grid points per atom       ...     1089
Average number of shells per batch           ...    74.85 (48.60%)
Average number of basis functions per batch  ...   146.85 (45.60%)
Average number of large shells per batch     ...    47.73 (63.77%)
Average number of large basis fcns per batch ...    96.12 (65.45%)
Maximum spatial batch extension              ...  14.78, 17.69, 11.58 au
Average spatial batch extension              ...   0.15,  0.17,  0.15 au

Time for grid setup =    0.148 sec

------------------------------
INITIAL GUESS: MODEL POTENTIAL
------------------------------
Loading Hartree-Fock densities                     ... done
Calculating cut-offs                               ... done
Setting up the integral package                    ... done
Initializing the effective Hamiltonian             ... done
Starting the Coulomb interaction                   ... done (   0.0 sec)
Reading the grid                                   ... done
Mapping shells                                     ... done
Starting the XC term evaluation                    ... done (   0.0 sec)
  promolecular density results
     # of electrons  =    133.993100877
     EX              =   -126.658659887
     EC              =     -4.607698284
     EX+EC           =   -131.266358171
Transforming the Hamiltonian                       ... done (   0.0 sec)
Diagonalizing the Hamiltonian                      ... done (   0.0 sec)
Back transforming the eigenvectors                 ... done (   0.0 sec)
Now organizing SCF variables                       ... done
                      ------------------
                      INITIAL GUESS DONE (   0.3 sec)
                      ------------------
--------------
SCF ITERATIONS
--------------
ITER       Energy         Delta-E        Max-DP      RMS-DP      [F,P]     Damp
               ***  Starting incremental Fock matrix formation  ***
  0  -1339.4441870949   0.000000000000 0.06583856  0.00149694  0.1653227 0.7000
  1  -1339.6203778555  -0.176190760637 0.04420966  0.00110112  0.0994726 0.7000
                               ***Turning on DIIS***
  2  -1339.7067316364  -0.086353780855 0.08911398  0.00210280  0.0512515 0.0000
  3  -1339.8380814553  -0.131349818971 0.04205027  0.00090528  0.0376543 0.0000
  4  -1339.8652841232  -0.027202667893 0.00671435  0.00019285  0.0070562 0.0000
                      *** Initiating the SOSCF procedure ***
                           *** Shutting down DIIS ***
                      *** Re-Reading the Fockian *** 
                      *** Removing any level shift *** 
ITER      Energy       Delta-E        Grad      Rot      Max-DP    RMS-DP
  5  -1339.86609537  -0.0008112427  0.001512  0.001512  0.002921  0.000093
               *** Restarting incremental Fock matrix formation ***
  6  -1339.86625430  -0.0001589307  0.001222  0.003246  0.002845  0.000062
  7  -1339.86630609  -0.0000517961  0.000657  0.003977  0.003731  0.000062
  8  -1339.86632138  -0.0000152863  0.000320  0.000534  0.000661  0.000021
  9  -1339.86632546  -0.0000040781  0.000110  0.000383  0.000354  0.000008
 10  -1339.86632600  -0.0000005397  0.000063  0.000220  0.000166  0.000003
                 **** Energy Check signals convergence ****
              ***Rediagonalizing the Fockian in SOSCF/NRSCF***

               *****************************************************
               *                     SUCCESS                       *
               *           SCF CONVERGED AFTER  11 CYCLES          *
               *****************************************************

Setting up the final grid:

General Integration Accuracy     IntAcc      ...  4.670
Radial Grid Type                 RadialGrid  ... Gauss-Chebyshev
Angular Grid (max. acc.)         AngularGrid ... Lebedev-302
Angular grid pruning method      GridPruning ... 3 (G Style)
Weight generation scheme         WeightScheme... Becke
Basis function cutoff            BFCut       ...    1.0000e-10
Integration weight cutoff        WCut        ...    1.0000e-14
Grids for H and He will be reduced by one unit

# of grid points (after initial pruning)     ... 161752 (   0.0 sec)
# of grid points (after weights+screening)   ... 142887 (   0.1 sec)
nearest neighbour list constructed           ...    0.0 sec
Grid point re-assignment to atoms done       ...    0.0 sec
Grid point division into batches done        ...    0.5 sec
Reduced shell lists constructed in    0.5 sec

Total number of grid points                  ...   142887
Total number of batches                      ...     2247
Average number of points per batch           ...       63
Average number of grid points per atom       ...     4203
Average number of shells per batch           ...    68.94 (44.76%)
Average number of basis functions per batch  ...   134.16 (41.66%)
Average number of large shells per batch     ...    42.19 (61.20%)
Average number of large basis fcns per batch ...    85.45 (63.70%)
Maximum spatial batch extension              ...  13.39, 12.84, 12.55 au
Average spatial batch extension              ...   0.10,  0.11,  0.10 au

Final grid set up in    0.8 sec
Final integration                            ... done (   0.3 sec)
Change in XC energy                          ...     0.005614286
Integrated number of electrons               ...   133.999976115
Previous integrated no of electrons          ...   133.998834872

----------------
TOTAL SCF ENERGY
----------------

Total Energy       :        -1339.86071187 Eh          -36459.46353 eV

Components:
Nuclear Repulsion  :         1273.06370526 Eh           34641.82458 eV
Electronic Energy  :        -2612.92441713 Eh          -71101.28811 eV
One Electron Energy:        -4362.90575486 Eh         -118720.70123 eV
Two Electron Energy:         1749.98133772 Eh           47619.41312 eV

Virial components:
Potential Energy   :        -2670.96077210 Eh          -72680.53762 eV
Kinetic Energy     :         1331.10006022 Eh           36221.07408 eV
Virial Ratio       :            2.00658151


DFT components:
N(Alpha)           :       66.999988057567 electrons
N(Beta)            :       66.999988057567 electrons
N(Total)           :      133.999976115133 electrons
E(XC)              :      -94.179107216979 Eh       
DFET-embed. en.    :        0.000000000000 Eh       

---------------
SCF CONVERGENCE
---------------

  Last Energy change         ...   -1.6328e-07  Tolerance :   1.0000e-06
  Last MAX-Density change    ...    2.8456e-05  Tolerance :   1.0000e-05
  Last RMS-Density change    ...    6.0322e-07  Tolerance :   1.0000e-06
  Last Orbital Gradient      ...    5.2808e-06  Tolerance :   5.0000e-05
  Last Orbital Rotation      ...    2.1943e-05  Tolerance :   5.0000e-05

             **** THE GBW FILE WAS UPDATED (config_7759.gbw) ****
             **** DENSITY FILE WAS UPDATED (config_7759.scfp) ****
             **** ENERGY FILE WAS UPDATED (config_7759.en.tmp) ****
             **** THE GBW FILE WAS UPDATED (config_7759.gbw) ****
             **** DENSITY FILE WAS UPDATED (config_7759.scfp) ****
----------------
ORBITAL ENERGIES
----------------

  NO   OCC          E(Eh)            E(eV) 
   0   2.0000     -88.968916     -2420.9673 
   1   2.0000     -88.966871     -2420.9116 
   2   2.0000     -10.330027      -281.0943 
   3   2.0000     -10.327015      -281.0124 
   4   2.0000     -10.318678      -280.7855 
   5   2.0000     -10.318322      -280.7758 
   6   2.0000     -10.305151      -280.4174 
   7   2.0000     -10.304620      -280.4030 
   8   2.0000     -10.295713      -280.1606 
   9   2.0000     -10.295585      -280.1571 
  10   2.0000     -10.295547      -280.1561 
  11   2.0000     -10.294964      -280.1402 
  12   2.0000     -10.291514      -280.0463 
  13   2.0000     -10.286378      -279.9066 
  14   2.0000     -10.280547      -279.7479 
  15   2.0000     -10.276481      -279.6373 
  16   2.0000      -8.083281      -219.9573 
  17   2.0000      -8.081278      -219.9027 
  18   2.0000      -6.041845      -164.4070 
  19   2.0000      -6.039730      -164.3494 
  20   2.0000      -6.037773      -164.2962 
  21   2.0000      -6.035627      -164.2378 
  22   2.0000      -6.034069      -164.1954 
  23   2.0000      -6.032319      -164.1478 
  24   2.0000      -1.003281       -27.3007 
  25   2.0000      -0.983135       -26.7525 
  26   2.0000      -0.904273       -24.6065 
  27   2.0000      -0.903227       -24.5781 
  28   2.0000      -0.861043       -23.4302 
  29   2.0000      -0.848131       -23.0788 
  30   2.0000      -0.842667       -22.9301 
  31   2.0000      -0.812605       -22.1121 
  32   2.0000      -0.783946       -21.3323 
  33   2.0000      -0.774362       -21.0715 
  34   2.0000      -0.702867       -19.1260 
  35   2.0000      -0.700540       -19.0627 
  36   2.0000      -0.692165       -18.8348 
  37   2.0000      -0.652489       -17.7551 
  38   2.0000      -0.641005       -17.4426 
  39   2.0000      -0.606544       -16.5049 
  40   2.0000      -0.586967       -15.9722 
  41   2.0000      -0.570582       -15.5263 
  42   2.0000      -0.557366       -15.1667 
  43   2.0000      -0.547214       -14.8905 
  44   2.0000      -0.536569       -14.6008 
  45   2.0000      -0.530400       -14.4329 
  46   2.0000      -0.522284       -14.2121 
  47   2.0000      -0.511712       -13.9244 
  48   2.0000      -0.500954       -13.6316 
  49   2.0000      -0.496303       -13.5051 
  50   2.0000      -0.489276       -13.3139 
  51   2.0000      -0.474387       -12.9087 
  52   2.0000      -0.468216       -12.7408 
  53   2.0000      -0.466353       -12.6901 
  54   2.0000      -0.460089       -12.5197 
  55   2.0000      -0.446101       -12.1390 
  56   2.0000      -0.438775       -11.9397 
  57   2.0000      -0.437522       -11.9056 
  58   2.0000      -0.428833       -11.6691 
  59   2.0000      -0.425707       -11.5841 
  60   2.0000      -0.423635       -11.5277 
  61   2.0000      -0.415240       -11.2993 
  62   2.0000      -0.412282       -11.2188 
  63   2.0000      -0.335986        -9.1426 
  64   2.0000      -0.327583        -8.9140 
  65   2.0000      -0.318260        -8.6603 
  66   2.0000      -0.315363        -8.5815 
  67   0.0000       0.048735         1.3261 
  68   0.0000       0.049241         1.3399 
  69   0.0000       0.119655         3.2560 
  70   0.0000       0.123747         3.3673 
  71   0.0000       0.126366         3.4386 
  72   0.0000       0.137038         3.7290 
  73   0.0000       0.141765         3.8576 
  74   0.0000       0.150681         4.1002 
  75   0.0000       0.161310         4.3895 
  76   0.0000       0.167441         4.5563 
  77   0.0000       0.182711         4.9718 
  78   0.0000       0.191238         5.2039 
  79   0.0000       0.197312         5.3691 
  80   0.0000       0.199986         5.4419 
  81   0.0000       0.207475         5.6457 
  82   0.0000       0.212136         5.7725 
  83   0.0000       0.215097         5.8531 
  84   0.0000       0.220763         6.0073 
  85   0.0000       0.226508         6.1636 
  86   0.0000       0.233917         6.3652 
  87   0.0000       0.236327         6.4308 
  88   0.0000       0.241447         6.5701 
  89   0.0000       0.252068         6.8591 
  90   0.0000       0.263218         7.1625 
  91   0.0000       0.265828         7.2335 
  92   0.0000       0.271645         7.3918 
  93   0.0000       0.289021         7.8647 
  94   0.0000       0.291679         7.9370 
  95   0.0000       0.309949         8.4342 
  96   0.0000       0.319106         8.6833 
  97   0.0000       0.332013         9.0345 
  98   0.0000       0.342710         9.3256 
  99   0.0000       0.358395         9.7524 
 100   0.0000       0.368916        10.0387 
 101   0.0000       0.401006        10.9119 
 102   0.0000       0.411300        11.1920 
 103   0.0000       0.421298        11.4641 
 104   0.0000       0.440069        11.9749 
 105   0.0000       0.459746        12.5103 
 106   0.0000       0.461198        12.5498 
 107   0.0000       0.466443        12.6926 
 108   0.0000       0.479472        13.0471 
 109   0.0000       0.502616        13.6769 
 110   0.0000       0.505155        13.7460 
 111   0.0000       0.511935        13.9305 
 112   0.0000       0.515712        14.0332 
 113   0.0000       0.524614        14.2755 
 114   0.0000       0.531796        14.4709 
 115   0.0000       0.533275        14.5112 
 116   0.0000       0.541504        14.7351 
 117   0.0000       0.550226        14.9724 
 118   0.0000       0.562437        15.3047 
 119   0.0000       0.569458        15.4957 
 120   0.0000       0.574144        15.6233 
 121   0.0000       0.591603        16.0983 
 122   0.0000       0.600219        16.3328 
 123   0.0000       0.600586        16.3428 
 124   0.0000       0.617001        16.7894 
 125   0.0000       0.634184        17.2570 
 126   0.0000       0.639377        17.3983 
 127   0.0000       0.643159        17.5012 
 128   0.0000       0.656514        17.8647 
 129   0.0000       0.659601        17.9487 
 130   0.0000       0.672413        18.2973 
 131   0.0000       0.683626        18.6024 
 132   0.0000       0.686759        18.6877 
 133   0.0000       0.698488        19.0068 
 134   0.0000       0.702607        19.1189 
 135   0.0000       0.715222        19.4622 
 136   0.0000       0.720483        19.6053 
 137   0.0000       0.723018        19.6743 
 138   0.0000       0.728390        19.8205 
 139   0.0000       0.733320        19.9547 
 140   0.0000       0.734376        19.9834 
 141   0.0000       0.740717        20.1559 
 142   0.0000       0.747652        20.3447 
 143   0.0000       0.749741        20.4015 
 144   0.0000       0.758958        20.6523 
 145   0.0000       0.761466        20.7205 
 146   0.0000       0.770655        20.9706 
 147   0.0000       0.773854        21.0576 
 148   0.0000       0.777498        21.1568 
 149   0.0000       0.783958        21.3326 
 150   0.0000       0.785932        21.3863 
 151   0.0000       0.791510        21.5381 
 152   0.0000       0.795411        21.6442 
 153   0.0000       0.800534        21.7836 
 154   0.0000       0.802303        21.8318 
 155   0.0000       0.806305        21.9407 
 156   0.0000       0.807442        21.9716 
 157   0.0000       0.809735        22.0340 
 158   0.0000       0.812363        22.1055 
 159   0.0000       0.815826        22.1997 
 160   0.0000       0.828547        22.5459 
 161   0.0000       0.832723        22.6595 
 162   0.0000       0.835242        22.7281 
 163   0.0000       0.843024        22.9399 
 164   0.0000       0.851287        23.1647 
 165   0.0000       0.855138        23.2695 
 166   0.0000       0.864516        23.5247 
 167   0.0000       0.866426        23.5766 
 168   0.0000       0.890158        24.2224 
 169   0.0000       0.895026        24.3549 
 170   0.0000       0.900081        24.4924 
 171   0.0000       0.906046        24.6548 
 172   0.0000       0.911079        24.7917 
 173   0.0000       0.931016        25.3342 
 174   0.0000       0.938261        25.5314 
 175   0.0000       0.959342        26.1050 
 176   0.0000       0.975731        26.5510 
 177   0.0000       0.987755        26.8782 
 178   0.0000       1.008782        27.4503 
 179   0.0000       1.019951        27.7543 
 180   0.0000       1.049510        28.5586 
 181   0.0000       1.074255        29.2320 
 182   0.0000       1.079261        29.3682 
 183   0.0000       1.099928        29.9306 
 184   0.0000       1.106618        30.1126 
 185   0.0000       1.124417        30.5969 
 186   0.0000       1.158052        31.5122 
 187   0.0000       1.172623        31.9087 
 188   0.0000       1.177539        32.0425 
 189   0.0000       1.211683        32.9716 
 190   0.0000       1.223726        33.2993 
 191   0.0000       1.241275        33.7768 
 192   0.0000       1.252151        34.0728 
 193   0.0000       1.270151        34.5626 
 194   0.0000       1.280232        34.8369 
 195   0.0000       1.296770        35.2869 
 196   0.0000       1.314513        35.7697 
 197   0.0000       1.332226        36.2517 
 198   0.0000       1.354278        36.8518 
 199   0.0000       1.364520        37.1305 
 200   0.0000       1.386925        37.7401 
 201   0.0000       1.390050        37.8252 
 202   0.0000       1.417361        38.5684 
 203   0.0000       1.427884        38.8547 
 204   0.0000       1.443360        39.2758 
 205   0.0000       1.460067        39.7305 
 206   0.0000       1.478022        40.2190 
 207   0.0000       1.504746        40.9462 
 208   0.0000       1.530119        41.6367 
 209   0.0000       1.559923        42.4477 
 210   0.0000       1.585268        43.1373 
 211   0.0000       1.612458        43.8772 
 212   0.0000       1.621667        44.1278 
 213   0.0000       1.636988        44.5447 
 214   0.0000       1.642005        44.6812 
 215   0.0000       1.657714        45.1087 
 216   0.0000       1.679573        45.7035 
 217   0.0000       1.692391        46.0523 
 218   0.0000       1.718564        46.7645 
 219   0.0000       1.754879        47.7527 
 220   0.0000       1.762102        47.9492 
 221   0.0000       1.787152        48.6309 
 222   0.0000       1.789524        48.6954 
 223   0.0000       1.802702        49.0540 
 224   0.0000       1.815297        49.3967 
 225   0.0000       1.829668        49.7878 
 226   0.0000       1.839619        50.0586 
 227   0.0000       1.856091        50.5068 
 228   0.0000       1.856682        50.5229 
 229   0.0000       1.859153        50.5901 
 230   0.0000       1.863689        50.7135 
 231   0.0000       1.871028        50.9133 
 232   0.0000       1.876992        51.0755 
 233   0.0000       1.886405        51.3317 
 234   0.0000       1.898483        51.6603 
 235   0.0000       1.902898        51.7805 
 236   0.0000       1.911053        52.0024 
 237   0.0000       1.914649        52.1002 
 238   0.0000       1.923926        52.3527 
 239   0.0000       1.936787        52.7027 
 240   0.0000       1.941639        52.8347 
 241   0.0000       1.957473        53.2655 
 242   0.0000       1.960372        53.3444 
 243   0.0000       1.968663        53.5700 
 244   0.0000       1.982996        53.9601 
 245   0.0000       1.990504        54.1644 
 246   0.0000       1.991006        54.1780 
 247   0.0000       1.996417        54.3253 
 248   0.0000       2.015171        54.8356 
 249   0.0000       2.023349        55.0581 
 250   0.0000       2.043983        55.6196 
 251   0.0000       2.049505        55.7699 
 252   0.0000       2.061909        56.1074 
 253   0.0000       2.083232        56.6876 
 254   0.0000       2.093592        56.9695 
 255   0.0000       2.100905        57.1685 
 256   0.0000       2.113850        57.5208 
 257   0.0000       2.133592        58.0580 
 258   0.0000       2.139783        58.2265 
 259   0.0000       2.145154        58.3726 
 260   0.0000       2.152062        58.5606 
 261   0.0000       2.170097        59.0513 
 262   0.0000       2.194952        59.7277 
 263   0.0000       2.210201        60.1426 
 264   0.0000       2.216936        60.3259 
 265   0.0000       2.240420        60.9649 
 266   0.0000       2.256548        61.4038 
 267   0.0000       2.266604        61.6774 
 268   0.0000       2.275532        61.9204 
 269   0.0000       2.281364        62.0791 
 270   0.0000       2.321342        63.1669 
 271   0.0000       2.325652        63.2842 
 272   0.0000       2.353107        64.0313 
 273   0.0000       2.372467        64.5581 
 274   0.0000       2.397422        65.2372 
 275   0.0000       2.410321        65.5882 
 276   0.0000       2.428126        66.0727 
 277   0.0000       2.441256        66.4300 
 278   0.0000       2.450023        66.6685 
 279   0.0000       2.464764        67.0696 
 280   0.0000       2.493518        67.8521 
 281   0.0000       2.499336        68.0104 
 282   0.0000       2.510432        68.3123 
 283   0.0000       2.517063        68.4928 
 284   0.0000       2.534812        68.9758 
 285   0.0000       2.544870        69.2494 
 286   0.0000       2.566715        69.8439 
 287   0.0000       2.587626        70.4129 
 288   0.0000       2.595673        70.6319 
 289   0.0000       2.599458        70.7348 
 290   0.0000       2.606008        70.9131 
 291   0.0000       2.671302        72.6898 
 292   0.0000       2.676109        72.8206 
 293   0.0000       2.683893        73.0324 
 294   0.0000       2.694883        73.3315 
 295   0.0000       2.720647        74.0326 
 296   0.0000       2.738460        74.5173 
 297   0.0000       2.751169        74.8631 
 298   0.0000       2.788967        75.8917 
 299   0.0000       2.792989        76.0011 
 300   0.0000       2.836673        77.1898 
 301   0.0000       2.863806        77.9281 
 302   0.0000       2.882101        78.4259 
 303   0.0000       2.905113        79.0521 
 304   0.0000       2.941321        80.0374 
 305   0.0000       2.964492        80.6679 
 306   0.0000       2.981775        81.1382 
 307   0.0000       3.001467        81.6741 
 308   0.0000       3.018256        82.1309 
 309   0.0000       3.030030        82.4513 
 310   0.0000       3.039317        82.7040 
 311   0.0000       3.057732        83.2051 
 312   0.0000       3.113302        84.7173 
 313   0.0000       3.124122        85.0117 
 314   0.0000       3.137977        85.3887 
 315   0.0000       3.143209        85.5311 
 316   0.0000       3.160080        85.9902 
 317   0.0000       3.166529        86.1656 
 318   0.0000       3.235775        88.0499 
 319   0.0000       3.236289        88.0639 
 320   0.0000       3.343777        90.9888 
 321   0.0000       3.380352        91.9841 

                    ********************************
                    * MULLIKEN POPULATION ANALYSIS *
                    ********************************

-----------------------
MULLIKEN ATOMIC CHARGES
-----------------------
   0 S :    0.113484
   1 C :   -0.143789
   2 C :   -0.080127
   3 C :    0.024124
   4 C :   -0.184584
   5 H :    0.022655
   6 C :    0.102055
   7 H :    0.003080
   8 H :    0.021970
   9 C :   -0.079911
  10 H :    0.030148
  11 H :    0.039108
  12 C :   -0.059502
  13 H :    0.042174
  14 H :    0.039261
  15 H :    0.031684
  16 S :    0.135573
  17 C :   -0.086018
  18 C :   -0.096351
  19 C :   -0.034708
  20 C :   -0.207288
  21 H :    0.034946
  22 C :    0.129185
  23 H :    0.032956
  24 H :    0.036497
  25 C :   -0.112012
  26 H :    0.020836
  27 H :    0.031883
  28 C :   -0.024195
  29 H :    0.045083
  30 H :    0.017808
  31 H :    0.038930
  32 H :    0.057519
  33 H :    0.057524
Sum of atomic charges:    0.0000000

--------------------------------
MULLIKEN REDUCED ORBITAL CHARGES
--------------------------------
  0 S s       :     5.841181  s :     5.841181
      pz      :     3.309129  p :     9.936032
      px      :     3.279855
      py      :     3.347048
      dz2     :     0.022773  d :     0.109303
      dxz     :     0.013761
      dyz     :     0.027174
      dx2y2   :     0.016111
      dxy     :     0.029484
  1 C s       :     3.210520  s :     3.210520
      pz      :     0.966853  p :     2.900255
      px      :     0.999303
      py      :     0.934099
      dz2     :     0.004224  d :     0.033014
      dxz     :     0.004606
      dyz     :     0.008913
      dx2y2   :     0.006233
      dxy     :     0.009037
  2 C s       :     3.080280  s :     3.080280
      pz      :     0.987188  p :     2.956515
      px      :     0.997303
      py      :     0.972024
      dz2     :     0.007702  d :     0.043332
      dxz     :     0.006746
      dyz     :     0.009173
      dx2y2   :     0.010842
      dxy     :     0.008869
  3 C s       :     3.193433  s :     3.193433
      pz      :     0.942207  p :     2.748617
      px      :     0.906406
      py      :     0.900004
      dz2     :     0.007105  d :     0.033826
      dxz     :     0.005100
      dyz     :     0.006845
      dx2y2   :     0.006260
      dxy     :     0.008517
  4 C s       :     3.084953  s :     3.084953
      pz      :     1.040400  p :     3.056526
      px      :     1.041539
      py      :     0.974587
      dz2     :     0.006872  d :     0.043105
      dxz     :     0.006108
      dyz     :     0.010948
      dx2y2   :     0.007265
      dxy     :     0.011914
  5 H s       :     0.954305  s :     0.954305
      pz      :     0.004235  p :     0.023040
      px      :     0.009071
      py      :     0.009734
  6 C s       :     2.919739  s :     2.919739
      pz      :     0.944559  p :     2.942825
      px      :     1.016017
      py      :     0.982249
      dz2     :     0.008738  d :     0.035380
      dxz     :     0.004383
      dyz     :     0.010348
      dx2y2   :     0.007511
      dxy     :     0.004400
  7 H s       :     0.971734  s :     0.971734
      pz      :     0.006009  p :     0.025185
      px      :     0.007678
      py      :     0.011498
  8 H s       :     0.953756  s :     0.953756
      pz      :     0.004529  p :     0.024274
      px      :     0.014259
      py      :     0.005485
  9 C s       :     3.078090  s :     3.078090
      pz      :     0.959795  p :     2.967603
      px      :     0.990761
      py      :     1.017047
      dz2     :     0.007457  d :     0.034219
      dxz     :     0.007483
      dyz     :     0.006043
      dx2y2   :     0.006870
      dxy     :     0.006367
 10 H s       :     0.947870  s :     0.947870
      pz      :     0.005730  p :     0.021982
      px      :     0.008809
      py      :     0.007443
 11 H s       :     0.939306  s :     0.939306
      pz      :     0.005368  p :     0.021586
      px      :     0.004194
      py      :     0.012023
 12 C s       :     3.034225  s :     3.034225
      pz      :     1.016417  p :     2.998251
      px      :     0.959832
      py      :     1.022002
      dz2     :     0.006494  d :     0.027027
      dxz     :     0.005469
      dyz     :     0.001940
      dx2y2   :     0.008613
      dxy     :     0.004511
 13 H s       :     0.935691  s :     0.935691
      pz      :     0.007826  p :     0.022135
      px      :     0.008755
      py      :     0.005554
 14 H s       :     0.935581  s :     0.935581
      pz      :     0.005528  p :     0.025158
      px      :     0.004486
      py      :     0.015144
 15 H s       :     0.946046  s :     0.946046
      pz      :     0.012345  p :     0.022270
      px      :     0.004777
      py      :     0.005148
 16 S s       :     5.844520  s :     5.844520
      pz      :     2.988827  p :     9.910045
      px      :     3.272699
      py      :     3.648519
      dz2     :     0.025185  d :     0.109861
      dxz     :     0.031942
      dyz     :     0.023741
      dx2y2   :     0.016337
      dxy     :     0.012656
 17 C s       :     3.145457  s :     3.145457
      pz      :     0.949883  p :     2.907036
      px      :     0.878276
      py      :     1.078877
      dz2     :     0.008218  d :     0.033525
      dxz     :     0.009232
      dyz     :     0.004102
      dx2y2   :     0.006282
      dxy     :     0.005691
 18 C s       :     3.202295  s :     3.202295
      pz      :     0.952758  p :     2.859531
      px      :     0.905367
      py      :     1.001407
      dz2     :     0.008747  d :     0.034524
      dxz     :     0.010688
      dyz     :     0.007456
      dx2y2   :     0.004000
      dxy     :     0.003634
 19 C s       :     3.061733  s :     3.061733
      pz      :     0.969772  p :     2.930001
      px      :     0.974853
      py      :     0.985376
      dz2     :     0.011533  d :     0.042974
      dxz     :     0.010445
      dyz     :     0.007389
      dx2y2   :     0.006383
      dxy     :     0.007224
 20 C s       :     3.088349  s :     3.088349
      pz      :     0.903441  p :     3.075352
      px      :     1.038014
      py      :     1.133897
      dz2     :     0.011316  d :     0.043587
      dxz     :     0.013195
      dyz     :     0.005499
      dx2y2   :     0.006683
      dxy     :     0.006894
 21 H s       :     0.942054  s :     0.942054
      pz      :     0.003862  p :     0.023000
      px      :     0.013224
      py      :     0.005914
 22 C s       :     2.928456  s :     2.928456
      pz      :     0.980812  p :     2.909561
      px      :     0.941709
      py      :     0.987040
      dz2     :     0.004259  d :     0.032798
      dxz     :     0.008056
      dyz     :     0.007572
      dx2y2   :     0.006051
      dxy     :     0.006860
 23 H s       :     0.942618  s :     0.942618
      pz      :     0.007562  p :     0.024426
      px      :     0.004669
      py      :     0.012195
 24 H s       :     0.940088  s :     0.940088
      pz      :     0.006768  p :     0.023415
      px      :     0.008482
      py      :     0.008165
 25 C s       :     3.065598  s :     3.065598
      pz      :     1.029657  p :     3.010854
      px      :     0.987527
      py      :     0.993670
      dz2     :     0.005024  d :     0.035560
      dxz     :     0.007920
      dyz     :     0.006467
      dx2y2   :     0.006681
      dxy     :     0.009467
 26 H s       :     0.955701  s :     0.955701
      pz      :     0.008072  p :     0.023462
      px      :     0.007684
      py      :     0.007707
 27 H s       :     0.946787  s :     0.946787
      pz      :     0.010968  p :     0.021330
      px      :     0.006412
      py      :     0.003950
 28 C s       :     2.999642  s :     2.999642
      pz      :     1.014889  p :     2.995955
      px      :     1.001243
      py      :     0.979823
      dz2     :     0.006157  d :     0.028597
      dxz     :     0.004845
      dyz     :     0.005688
      dx2y2   :     0.005445
      dxy     :     0.006463
 29 H s       :     0.932521  s :     0.932521
      pz      :     0.004303  p :     0.022396
      px      :     0.012606
      py      :     0.005487
 30 H s       :     0.955079  s :     0.955079
      pz      :     0.008776  p :     0.027112
      px      :     0.009832
      py      :     0.008505
 31 H s       :     0.938503  s :     0.938503
      pz      :     0.012896  p :     0.022567
      px      :     0.005520
      py      :     0.004150
 32 H s       :     0.919226  s :     0.919226
      pz      :     0.008205  p :     0.023255
      px      :     0.011042
      py      :     0.004008
 33 H s       :     0.918857  s :     0.918857
      pz      :     0.013949  p :     0.023619
      px      :     0.004436
      py      :     0.005234


                     *******************************
                     * LOEWDIN POPULATION ANALYSIS *
                     *******************************

----------------------
LOEWDIN ATOMIC CHARGES
----------------------
   0 S :    0.410605
   1 C :   -0.191548
   2 C :   -0.066153
   3 C :   -0.067233
   4 C :   -0.216367
   5 H :    0.034766
   6 C :   -0.035324
   7 H :    0.022664
   8 H :    0.032398
   9 C :   -0.036453
  10 H :    0.023948
  11 H :    0.028735
  12 C :   -0.069880
  13 H :    0.030376
  14 H :    0.020234
  15 H :    0.031113
  16 S :    0.424843
  17 C :   -0.196431
  18 C :   -0.081088
  19 C :   -0.056466
  20 C :   -0.210492
  21 H :    0.035250
  22 C :   -0.018936
  23 H :    0.031066
  24 H :    0.032892
  25 C :   -0.047910
  26 H :    0.017792
  27 H :    0.030383
  28 C :   -0.059170
  29 H :    0.035357
  30 H :    0.012255
  31 H :    0.030561
  32 H :    0.031126
  33 H :    0.037086

-------------------------------
LOEWDIN REDUCED ORBITAL CHARGES
-------------------------------
  0 S s       :     5.502056  s :     5.502056
      pz      :     3.296856  p :     9.951575
      px      :     3.269004
      py      :     3.385716
      dz2     :     0.027840  d :     0.135764
      dxz     :     0.018716
      dyz     :     0.033461
      dx2y2   :     0.018098
      dxy     :     0.037649
  1 C s       :     2.939184  s :     2.939184
      pz      :     1.051209  p :     3.174270
      px      :     1.073454
      py      :     1.049607
      dz2     :     0.009652  d :     0.078094
      dxz     :     0.009391
      dyz     :     0.020772
      dx2y2   :     0.016015
      dxy     :     0.022265
  2 C s       :     2.863271  s :     2.863271
      pz      :     1.016497  p :     3.095205
      px      :     1.023562
      py      :     1.055146
      dz2     :     0.018070  d :     0.107678
      dxz     :     0.017012
      dyz     :     0.022876
      dx2y2   :     0.028234
      dxy     :     0.021487
  3 C s       :     2.881558  s :     2.881558
      pz      :     1.024390  p :     3.097247
      px      :     1.019698
      py      :     1.053160
      dz2     :     0.016723  d :     0.088427
      dxz     :     0.013326
      dyz     :     0.018667
      dx2y2   :     0.017803
      dxy     :     0.021907
  4 C s       :     2.922105  s :     2.922105
      pz      :     1.075204  p :     3.194003
      px      :     1.049271
      py      :     1.069528
      dz2     :     0.015233  d :     0.100258
      dxz     :     0.013858
      dyz     :     0.026532
      dx2y2   :     0.018097
      dxy     :     0.026538
  5 H s       :     0.898302  s :     0.898302
      pz      :     0.013186  p :     0.066932
      px      :     0.026244
      py      :     0.027502
  6 C s       :     2.816680  s :     2.816680
      pz      :     1.016396  p :     3.130056
      px      :     1.073824
      py      :     1.039836
      dz2     :     0.022621  d :     0.088588
      dxz     :     0.009709
      dyz     :     0.025472
      dx2y2   :     0.019593
      dxy     :     0.011193
  7 H s       :     0.901643  s :     0.901643
      pz      :     0.020687  p :     0.075692
      px      :     0.021146
      py      :     0.033859
  8 H s       :     0.896625  s :     0.896625
      pz      :     0.014949  p :     0.070977
      px      :     0.039735
      py      :     0.016292
  9 C s       :     2.851613  s :     2.851613
      pz      :     1.005245  p :     3.103604
      px      :     1.033457
      py      :     1.064901
      dz2     :     0.019564  d :     0.081236
      dxz     :     0.015557
      dyz     :     0.013711
      dx2y2   :     0.016590
      dxy     :     0.015814
 10 H s       :     0.910349  s :     0.910349
      pz      :     0.017948  p :     0.065703
      px      :     0.026970
      py      :     0.020784
 11 H s       :     0.906785  s :     0.906785
      pz      :     0.017487  p :     0.064480
      px      :     0.012464
      py      :     0.034530
 12 C s       :     2.845112  s :     2.845112
      pz      :     1.061240  p :     3.156647
      px      :     1.022499
      py      :     1.072908
      dz2     :     0.016315  d :     0.068121
      dxz     :     0.013929
      dyz     :     0.004967
      dx2y2   :     0.021295
      dxy     :     0.011615
 13 H s       :     0.907779  s :     0.907779
      pz      :     0.020709  p :     0.061845
      px      :     0.026286
      py      :     0.014851
 14 H s       :     0.905824  s :     0.905824
      pz      :     0.015561  p :     0.073942
      px      :     0.014741
      py      :     0.043639
 15 H s       :     0.909549  s :     0.909549
      pz      :     0.033536  p :     0.059339
      px      :     0.013027
      py      :     0.012776
 16 S s       :     5.508432  s :     5.508432
      pz      :     3.017224  p :     9.930568
      px      :     3.304013
      py      :     3.609332
      dz2     :     0.034089  d :     0.136157
      dxz     :     0.040508
      dyz     :     0.029290
      dx2y2   :     0.019041
      dxy     :     0.013230
 17 C s       :     2.943403  s :     2.943403
      pz      :     1.075710  p :     3.175899
      px      :     1.014512
      py      :     1.085677
      dz2     :     0.019563  d :     0.077129
      dxz     :     0.024264
      dyz     :     0.008253
      dx2y2   :     0.013086
      dxy     :     0.011963
 18 C s       :     2.876972  s :     2.876972
      pz      :     1.049276  p :     3.114638
      px      :     1.045774
      py      :     1.019588
      dz2     :     0.024575  d :     0.089477
      dxz     :     0.031138
      dyz     :     0.017224
      dx2y2   :     0.008599
      dxy     :     0.007941
 19 C s       :     2.864759  s :     2.864759
      pz      :     1.048594  p :     3.085383
      px      :     1.054955
      py      :     0.981833
      dz2     :     0.030724  d :     0.106325
      dxz     :     0.029049
      dyz     :     0.014172
      dx2y2   :     0.016118
      dxy     :     0.016261
 20 C s       :     2.909483  s :     2.909483
      pz      :     0.997818  p :     3.196700
      px      :     1.080381
      py      :     1.118501
      dz2     :     0.026658  d :     0.104308
      dxz     :     0.035154
      dyz     :     0.011678
      dx2y2   :     0.015692
      dxy     :     0.015127
 21 H s       :     0.898504  s :     0.898504
      pz      :     0.012679  p :     0.066246
      px      :     0.036648
      py      :     0.016920
 22 C s       :     2.832927  s :     2.832927
      pz      :     1.028748  p :     3.104564
      px      :     1.018034
      py      :     1.057782
      dz2     :     0.011110  d :     0.081445
      dxz     :     0.019345
      dyz     :     0.018878
      dx2y2   :     0.013830
      dxy     :     0.018281
 23 H s       :     0.894387  s :     0.894387
      pz      :     0.022975  p :     0.074547
      px      :     0.015311
      py      :     0.036260
 24 H s       :     0.898706  s :     0.898706
      pz      :     0.019924  p :     0.068402
      px      :     0.025922
      py      :     0.022556
 25 C s       :     2.843134  s :     2.843134
      pz      :     1.071059  p :     3.120060
      px      :     1.017200
      py      :     1.031800
      dz2     :     0.011972  d :     0.084715
      dxz     :     0.018840
      dyz     :     0.015752
      dx2y2   :     0.016405
      dxy     :     0.021746
 26 H s       :     0.912124  s :     0.912124
      pz      :     0.022488  p :     0.070084
      px      :     0.023683
      py      :     0.023913
 27 H s       :     0.907789  s :     0.907789
      pz      :     0.030363  p :     0.061827
      px      :     0.019523
      py      :     0.011941
 28 C s       :     2.825808  s :     2.825808
      pz      :     1.062804  p :     3.160171
      px      :     1.057526
      py      :     1.039841
      dz2     :     0.016133  d :     0.073191
      dxz     :     0.011662
      dyz     :     0.014155
      dx2y2   :     0.015275
      dxy     :     0.015967
 29 H s       :     0.902657  s :     0.902657
      pz      :     0.011318  p :     0.061986
      px      :     0.034709
      py      :     0.015959
 30 H s       :     0.907982  s :     0.907982
      pz      :     0.025343  p :     0.079764
      px      :     0.028165
      py      :     0.026256
 31 H s       :     0.907932  s :     0.907932
      pz      :     0.034959  p :     0.061507
      px      :     0.014333
      py      :     0.012215
 32 H s       :     0.895558  s :     0.895558
      pz      :     0.026543  p :     0.073315
      px      :     0.033625
      py      :     0.013147
 33 H s       :     0.889715  s :     0.889715
      pz      :     0.040552  p :     0.073199
      px      :     0.015806
      py      :     0.016841


                      *****************************
                      * MAYER POPULATION ANALYSIS *
                      *****************************

  NA   - Mulliken gross atomic population
  ZA   - Total nuclear charge
  QA   - Mulliken gross atomic charge
  VA   - Mayer's total valence
  BVA  - Mayer's bonded valence
  FA   - Mayer's free valence

  ATOM       NA         ZA         QA         VA         BVA        FA
  0 S     15.8865    16.0000     0.1135     2.5041     2.5041     0.0000
  1 C      6.1438     6.0000    -0.1438     3.8237     3.8237     0.0000
  2 C      6.0801     6.0000    -0.0801     3.9859     3.9859     0.0000
  3 C      5.9759     6.0000     0.0241     3.9270     3.9270     0.0000
  4 C      6.1846     6.0000    -0.1846     3.8970     3.8970    -0.0000
  5 H      0.9773     1.0000     0.0227     1.0023     1.0023     0.0000
  6 C      5.8979     6.0000     0.1021     3.9385     3.9385     0.0000
  7 H      0.9969     1.0000     0.0031     0.9951     0.9951    -0.0000
  8 H      0.9780     1.0000     0.0220     0.9851     0.9851    -0.0000
  9 C      6.0799     6.0000    -0.0799     4.0845     4.0845    -0.0000
 10 H      0.9699     1.0000     0.0301     0.9755     0.9755    -0.0000
 11 H      0.9609     1.0000     0.0391     0.9759     0.9759    -0.0000
 12 C      6.0595     6.0000    -0.0595     3.9877     3.9877    -0.0000
 13 H      0.9578     1.0000     0.0422     0.9899     0.9899    -0.0000
 14 H      0.9607     1.0000     0.0393     0.9928     0.9928    -0.0000
 15 H      0.9683     1.0000     0.0317     0.9828     0.9828    -0.0000
 16 S     15.8644    16.0000     0.1356     2.4907     2.4907    -0.0000
 17 C      6.0860     6.0000    -0.0860     3.8433     3.8433     0.0000
 18 C      6.0964     6.0000    -0.0964     3.9946     3.9946     0.0000
 19 C      6.0347     6.0000    -0.0347     3.9967     3.9967     0.0000
 20 C      6.2073     6.0000    -0.2073     3.9264     3.9264    -0.0000
 21 H      0.9651     1.0000     0.0349     0.9936     0.9936    -0.0000
 22 C      5.8708     6.0000     0.1292     3.9344     3.9344     0.0000
 23 H      0.9670     1.0000     0.0330     0.9917     0.9917     0.0000
 24 H      0.9635     1.0000     0.0365     0.9958     0.9958     0.0000
 25 C      6.1120     6.0000    -0.1120     4.1050     4.1050     0.0000
 26 H      0.9792     1.0000     0.0208     0.9753     0.9753     0.0000
 27 H      0.9681     1.0000     0.0319     0.9768     0.9768     0.0000
 28 C      6.0242     6.0000    -0.0242     3.9830     3.9830    -0.0000
 29 H      0.9549     1.0000     0.0451     0.9852     0.9852    -0.0000
 30 H      0.9822     1.0000     0.0178     0.9959     0.9959     0.0000
 31 H      0.9611     1.0000     0.0389     0.9999     0.9999     0.0000
 32 H      0.9425     1.0000     0.0575     1.0020     1.0020    -0.0000
 33 H      0.9425     1.0000     0.0575     0.9979     0.9979    -0.0000

  Mayer bond orders larger than 0.100000
B(  0-S ,  1-C ) :   1.1584 B(  0-S ,  4-C ) :   1.1536 B(  1-C ,  2-C ) :   1.5716 
B(  1-C , 32-H ) :   0.9729 B(  2-C ,  3-C ) :   1.2498 B(  2-C ,  6-C ) :   1.0319 
B(  3-C ,  4-C ) :   1.5909 B(  3-C ,  5-H ) :   0.9833 B(  4-C , 20-C ) :   0.9869 
B(  6-C ,  7-H ) :   0.9350 B(  6-C ,  8-H ) :   0.9341 B(  6-C ,  9-C ) :   1.0583 
B(  9-C , 10-H ) :   0.9575 B(  9-C , 11-H ) :   0.9611 B(  9-C , 12-C ) :   1.0750 
B( 12-C , 13-H ) :   0.9783 B( 12-C , 14-H ) :   0.9744 B( 12-C , 15-H ) :   0.9758 
B( 16-S , 17-C ) :   1.1504 B( 16-S , 20-C ) :   1.1688 B( 17-C , 18-C ) :   1.6227 
B( 17-C , 20-C ) :   0.1015 B( 17-C , 33-H ) :   0.9594 B( 18-C , 19-C ) :   1.2517 
B( 18-C , 21-H ) :   0.9717 B( 19-C , 20-C ) :   1.6131 B( 19-C , 22-C ) :   0.9965 
B( 22-C , 23-H ) :   0.9311 B( 22-C , 24-H ) :   0.9372 B( 22-C , 25-C ) :   1.0802 
B( 25-C , 26-H ) :   0.9494 B( 25-C , 27-H ) :   0.9554 B( 25-C , 28-C ) :   1.0742 
B( 28-C , 29-H ) :   0.9721 B( 28-C , 30-H ) :   0.9746 B( 28-C , 31-H ) :   0.9723 


-------
TIMINGS
-------

Total SCF time: 0 days 0 hours 0 min 19 sec 

Total time                  ....      19.430 sec
Sum of individual times     ....      18.565 sec  ( 95.5%)

Fock matrix formation       ....      16.887 sec  ( 86.9%)
  XC integration            ....       1.480 sec  (  8.8% of F)
    Basis function eval.    ....       0.146 sec  (  9.9% of XC)
    Density eval.           ....       0.099 sec  (  6.7% of XC)
    XC-Functional eval.     ....       0.111 sec  (  7.5% of XC)
    XC-Potential eval.      ....       0.120 sec  (  8.1% of XC)
Diagonalization             ....       0.144 sec  (  0.7%)
Density matrix formation    ....       0.029 sec  (  0.2%)
Population analysis         ....       0.053 sec  (  0.3%)
Initial guess               ....       0.168 sec  (  0.9%)
Orbital Transformation      ....       0.000 sec  (  0.0%)
Orbital Orthonormalization  ....       0.000 sec  (  0.0%)
DIIS solution               ....       0.162 sec  (  0.8%)
SOSCF solution              ....       0.128 sec  (  0.7%)
Grid generation             ....       0.994 sec  (  5.1%)


-------------------------------------------------------------------------------
                          DFT DISPERSION CORRECTION                            
                                                                               
                              DFTD3 V3.1  Rev 1                                
                              USING zero damping                               
-------------------------------------------------------------------------------
The omegaB97X-D3 functional is recognized. Fit by Chai et al.
Active option DFTDOPT                   ...         3   

molecular C6(AA) [au] = 14202.414092 


            DFT-D V3
 parameters
 s6 scaling factor         :     1.0000 
 rs6 scaling factor        :     1.2810 
 s8 scaling factor         :     1.0000 
 rs8 scaling factor        :     1.0940 
 Damping factor alpha6     :    14.0000 
 Damping factor alpha8     :    16.0000 
 ad hoc parameters k1-k3   :    16.0000     1.3333    -4.0000 

 Edisp/kcal,au: -9.167881158245  -0.014609947035 
 E6   /kcal   :  -4.151812792 
 E8   /kcal   :  -5.016068367 
 % E8         :  54.713496828 

-------------------------   ----------------
Dispersion correction           -0.014609947
-------------------------   ----------------


-------------------------   --------------------
FINAL SINGLE POINT ENERGY     -1339.875321821445
-------------------------   --------------------


                            ***************************************
                            *     ORCA property calculations      *
                            ***************************************

                                    ---------------------
                                    Active property flags
                                    ---------------------
   (+) Dipole Moment


------------------------------------------------------------------------------
                       ORCA ELECTRIC PROPERTIES CALCULATION
------------------------------------------------------------------------------

Dipole Moment Calculation                       ... on
Quadrupole Moment Calculation                   ... off
Polarizability Calculation                      ... off
GBWName                                         ... config_7759.gbw
Electron density file                           ... config_7759.scfp
The origin for moment calculation is the CENTER OF MASS  = (-164.333947, -63.038403 -121.661964)

-------------
DIPOLE MOMENT
-------------
                                X             Y             Z
Electronic contribution:     13.66012       1.75305      18.47210
Nuclear contribution   :    -14.01649      -1.89025     -18.89993
                        -----------------------------------------
Total Dipole Moment    :     -0.35637      -0.13720      -0.42783
                        -----------------------------------------
Magnitude (a.u.)       :      0.57347
Magnitude (Debye)      :      1.45764



--------------------
Rotational spectrum 
--------------------
 
Rotational constants in cm-1:     0.020394     0.007888     0.006695 
Rotational constants in MHz :   611.406907   236.463037   200.705594 

 Dipole components along the rotational axes: 
x,y,z [a.u.] :     0.138398    -0.508710    -0.225668 
x,y,z [Debye]:     0.351781    -1.293037    -0.573602 

 

Timings for individual modules:

Sum of individual times         ...       20.599 sec (=   0.343 min)
GTO integral calculation        ...        0.778 sec (=   0.013 min)   3.8 %
SCF iterations                  ...       19.821 sec (=   0.330 min)  96.2 %
                             ****ORCA TERMINATED NORMALLY****
TOTAL RUN TIME: 0 days 0 hours 0 minutes 21 seconds 315 msec
