
                                 *****************
                                 * O   R   C   A *
                                 *****************

           --- An Ab Initio, DFT and Semiempirical electronic structure package ---

                  #######################################################
                  #                        -***-                        #
                  #          Department of theory and spectroscopy      #
                  #               Directorship: Frank Neese             #
                  #        Max Planck Institute fuer Kohlenforschung    #
                  #                Kaiser Wilhelm Platz 1               #
                  #                 D-45470 Muelheim/Ruhr               #
                  #                      Germany                        #
                  #                                                     #
                  #                  All rights reserved                #
                  #                        -***-                        #
                  #######################################################


                         Program Version 4.2.1 -  RELEASE  -


 With contributions from (in alphabetic order):
   Daniel Aravena         : Magnetic Suceptibility
   Michael Atanasov       : Ab Initio Ligand Field Theory (pilot matlab implementation)
   Alexander A. Auer      : GIAO ZORA, VPT2
   Ute Becker             : Parallelization
   Giovanni Bistoni       : ED, misc. LED, open-shell LED, HFLD
   Martin Brehm           : Molecular dynamics
   Dmytro Bykov           : SCF Hessian
   Vijay G. Chilkuri      : MRCI spin determinant printing, contributions to CSF-ICE
   Dipayan Datta          : RHF DLPNO-CCSD density
   Achintya Kumar Dutta   : EOM-CC, STEOM-CC
   Dmitry Ganyushin       : Spin-Orbit,Spin-Spin,Magnetic field MRCI
   Miquel Garcia          : C-PCM Hessian, Gaussian charge scheme
   Yang Guo               : DLPNO-NEVPT2, CIM, IAO-localization
   Andreas Hansen         : Spin unrestricted coupled pair/coupled cluster methods
   Benjamin Helmich-Paris : CASSCF linear response (MC-RPA)
   Lee Huntington         : MR-EOM, pCC
   Robert Izsak           : Overlap fitted RIJCOSX, COSX-SCS-MP3, EOM
   Christian Kollmar      : KDIIS, OOCD, Brueckner-CCSD(T), CCSD density
   Simone Kossmann        : Meta GGA functionals, TD-DFT gradient, OOMP2, MP2 Hessian
   Martin Krupicka        : AUTO-CI
   Lucas Lang             : DCDCAS
   Dagmar Lenk            : GEPOL surface, SMD
   Dimitrios Liakos       : Extrapolation schemes; Compound Job, initial MDCI parallelization
   Dimitrios Manganas     : Further ROCIS development; embedding schemes
   Dimitrios Pantazis     : SARC Basis sets
   Taras Petrenko         : DFT Hessian,TD-DFT gradient, ASA, ECA, R-Raman, ABS, FL, XAS/XES, NRVS
   Peter Pinski           : DLPNO-MP2, DLPNO-MP2 Gradient
   Christoph Reimann      : Effective Core Potentials
   Marius Retegan         : Local ZFS, SOC
   Christoph Riplinger    : Optimizer, TS searches, QM/MM, DLPNO-CCSD(T), (RO)-DLPNO pert. Triples
   Tobias Risthaus        : Range-separated hybrids, TD-DFT gradient, RPA, STAB
   Michael Roemelt        : Original ROCIS implementation
   Masaaki Saitow         : Open-shell DLPNO-CCSD energy and density
   Barbara Sandhoefer     : DKH picture change effects
   Avijit Sen             : IP-ROCIS
   Kantharuban Sivalingam : CASSCF convergence, NEVPT2, FIC-MRCI
   Bernardo de Souza      : ESD, SOC TD-DFT
   Georgi Stoychev        : AutoAux, RI-MP2 NMR
   Willem Van den Heuvel  : Paramagnetic NMR
   Boris Wezisla          : Elementary symmetry handling
   Frank Wennmohs         : Technical directorship


 We gratefully acknowledge several colleagues who have allowed us to
 interface, adapt or use parts of their codes:
   Stefan Grimme, W. Hujo, H. Kruse,             : VdW corrections, initial TS optimization,
                  C. Bannwarth                     DFT functionals, gCP, sTDA/sTD-DF
   Ed Valeev, F. Pavosevic, A. Kumar             : LibInt (2-el integral package), F12 methods
   Garnet Chan, S. Sharma, J. Yang, R. Olivares  : DMRG
   Ulf Ekstrom                                   : XCFun DFT Library
   Mihaly Kallay                                 : mrcc  (arbitrary order and MRCC methods)
   Andreas Klamt, Michael Diedenhofen            : otool_cosmo (COSMO solvation model)
   Jiri Pittner, Ondrej Demel                    : Mk-CCSD
   Frank Weinhold                                : gennbo (NPA and NBO analysis)
   Christopher J. Cramer and Donald G. Truhlar   : smd solvation model
   Lars Goerigk                                  : TD-DFT with DH, B97 family of functionals
   V. Asgeirsson, H. Jonsson                     : NEB implementation
   FAccTs GmbH                                   : IRC, NEB, NEB-TS, Multilevel, MM, QM/MM, CI optimization
   S Lehtola, MJT Oliveira, MAL Marques          : LibXC Library


 Your calculation uses the libint2 library for the computation of 2-el integrals
 For citations please refer to: http://libint.valeyev.net

 Your ORCA version has been built with support for libXC version: 4.2.3
 For citations please refer to: https://tddft.org/programs/libxc/

 This ORCA versions uses:
   CBLAS   interface :  Fast vector & matrix operations
   LAPACKE interface :  Fast linear algebra routines
   SCALAPACK package :  Parallel linear algebra routines


Your calculation utilizes the atom-pairwise dispersion correction
with the zero-damping scheme (D30)
Cite in your paper:
S.Grimme, J.Antony, S.Ehrlich and H.Krieg, J.Chem.Phys., 132, (2010), 154104 
   

XCFun DFT library Copyright 2009-2010 Ulf Ekstrom and contributors.
See http://admol.org/xcfun for more information. This is free soft-
ware; see the source code for copying conditions. There is ABSOLUTELY
NO WARRANTY; not even for MERCHANTABILITY or FITNESS FOR A PARTICULAR
PURPOSE. For details see the documentation. Scientific users of this 
library should cite U. Ekstrom, L. Visscher, R. Bast, A. J. Thorvald-
sen and K. Ruud; J.Chem.Theor.Comp. 2010, DOI: 10.1021/ct100117s
XCFun Version 0.99 
----- Orbital basis set information -----
Your calculation utilizes the basis: def2-SVP
   F. Weigend and R. Ahlrichs, Phys. Chem. Chem. Phys. 7, 3297 (2005).

================================================================================
                                        WARNINGS
                       Please study these warnings very carefully!
================================================================================


INFO   : the flag for use of LIBINT has been found!

================================================================================
                                       INPUT FILE
================================================================================
NAME = config_9582.inp
|  1> ! wB97X-D3 SP def2-SVP
|  2> %pal
|  3> nprocs 24
|  4> end
|  5> 
|  6> * xyz 0 1
|  7> S 	 39.9666 	 -26.7847 	 -109.221 	 
|  8> C 	 41.6826 	 -26.476 	 -108.891 	 
|  9> C 	 42.0939 	 -25.2801 	 -109.429 	 
| 10> C 	 40.9871 	 -24.6074 	 -110.129 	 
| 11> C 	 39.7803 	 -25.3499 	 -110.249 	 
| 12> H 	 41.1452 	 -23.7272 	 -110.734 	 
| 13> C 	 43.4455 	 -24.6101 	 -109.182 	 
| 14> H 	 44.0554 	 -24.757 	 -109.986 	 
| 15> H 	 43.9716 	 -25.1566 	 -108.309 	 
| 16> C 	 43.4835 	 -23.095 	 -109.006 	 
| 17> H 	 44.4949 	 -22.846 	 -109.036 	 
| 18> H 	 43.0489 	 -22.6505 	 -109.865 	 
| 19> C 	 42.7601 	 -22.6062 	 -107.747 	 
| 20> H 	 43.1528 	 -23.1239 	 -106.84 	 
| 21> H 	 42.727 	 -21.5492 	 -107.662 	 
| 22> H 	 41.6957 	 -22.7374 	 -107.759 	 
| 23> S 	 37.7375 	 -26.2835 	 -111.991 	 
| 24> C 	 36.5868 	 -25.1063 	 -112.555 	 
| 25> C 	 36.8642 	 -23.8174 	 -112.097 	 
| 26> C 	 38.0252 	 -23.828 	 -111.273 	 
| 27> C 	 38.5649 	 -25.0619 	 -111.014 	 
| 28> H 	 36.2919 	 -22.9406 	 -112.384 	 
| 29> C 	 38.4302 	 -22.543 	 -110.616 	 
| 30> H 	 39.3939 	 -22.6444 	 -110.069 	 
| 31> H 	 37.716 	 -22.2048 	 -109.898 	 
| 32> C 	 38.7073 	 -21.3493 	 -111.62 	 
| 33> H 	 37.8182 	 -21.2692 	 -112.276 	 
| 34> H 	 39.6295 	 -21.5235 	 -112.136 	 
| 35> C 	 39.0067 	 -20.0399 	 -110.944 	 
| 36> H 	 39.1461 	 -19.2474 	 -111.733 	 
| 37> H 	 40.0206 	 -20.1871 	 -110.465 	 
| 38> H 	 38.2707 	 -19.7385 	 -110.107 	 
| 39> H 	 42.4339 	 -27.0323 	 -108.304 	 
| 40> H 	 35.7718 	 -25.343 	 -113.208 	 
| 41> *
| 42> 
| 43>                          ****END OF INPUT****
================================================================================

                       ****************************
                       * Single Point Calculation *
                       ****************************

---------------------------------
CARTESIAN COORDINATES (ANGSTROEM)
---------------------------------
  S     39.966600  -26.784700  -109.221000
  C     41.682600  -26.476000  -108.891000
  C     42.093900  -25.280100  -109.429000
  C     40.987100  -24.607400  -110.129000
  C     39.780300  -25.349900  -110.249000
  H     41.145200  -23.727200  -110.734000
  C     43.445500  -24.610100  -109.182000
  H     44.055400  -24.757000  -109.986000
  H     43.971600  -25.156600  -108.309000
  C     43.483500  -23.095000  -109.006000
  H     44.494900  -22.846000  -109.036000
  H     43.048900  -22.650500  -109.865000
  C     42.760100  -22.606200  -107.747000
  H     43.152800  -23.123900  -106.840000
  H     42.727000  -21.549200  -107.662000
  H     41.695700  -22.737400  -107.759000
  S     37.737500  -26.283500  -111.991000
  C     36.586800  -25.106300  -112.555000
  C     36.864200  -23.817400  -112.097000
  C     38.025200  -23.828000  -111.273000
  C     38.564900  -25.061900  -111.014000
  H     36.291900  -22.940600  -112.384000
  C     38.430200  -22.543000  -110.616000
  H     39.393900  -22.644400  -110.069000
  H     37.716000  -22.204800  -109.898000
  C     38.707300  -21.349300  -111.620000
  H     37.818200  -21.269200  -112.276000
  H     39.629500  -21.523500  -112.136000
  C     39.006700  -20.039900  -110.944000
  H     39.146100  -19.247400  -111.733000
  H     40.020600  -20.187100  -110.465000
  H     38.270700  -19.738500  -110.107000
  H     42.433900  -27.032300  -108.304000
  H     35.771800  -25.343000  -113.208000

----------------------------
CARTESIAN COORDINATES (A.U.)
----------------------------
  NO LB      ZA    FRAG     MASS         X           Y           Z
   0 S    16.0000    0    32.060   75.525929  -50.615748  -206.397778
   1 C     6.0000    0    12.011   78.768699  -50.032389  -205.774168
   2 C     6.0000    0    12.011   79.545943  -47.772466  -206.790841
   3 C     6.0000    0    12.011   77.454394  -46.501247  -208.113649
   4 C     6.0000    0    12.011   75.173873  -47.904369  -208.340417
   5 H     1.0000    0     1.008   77.753160  -44.837910  -209.256934
   6 C     6.0000    0    12.011   82.100097  -46.506349  -206.324079
   7 H     1.0000    0     1.008   83.252641  -46.783950  -207.843419
   8 H     1.0000    0     1.008   83.094282  -47.539084  -204.674348
   9 C     6.0000    0    12.011   82.171906  -43.643225  -205.991487
  10 H     1.0000    0     1.008   84.083175  -43.172683  -206.048179
  11 H     1.0000    0     1.008   81.350631  -42.803242  -207.614762
  12 C     6.0000    0    12.011   80.804878  -42.719527  -203.612322
  13 H     1.0000    0     1.008   81.546974  -43.697838  -201.898340
  14 H     1.0000    0     1.008   80.742329  -40.722086  -203.451695
  15 H     1.0000    0     1.008   78.793454  -42.967459  -203.634998
  16 S    16.0000    0    32.060   71.313540  -49.668617  -211.632319
  17 C     6.0000    0    12.011   69.139032  -47.444031  -212.698125
  18 C     6.0000    0    12.011   69.663242  -45.008363  -211.832630
  19 C     6.0000    0    12.011   71.857214  -45.028394  -210.275496
  20 C     6.0000    0    12.011   72.877099  -47.360127  -209.786057
  21 H     1.0000    0     1.008   68.581752  -43.351451  -212.374982
  22 C     6.0000    0    12.011   72.622553  -42.600096  -209.033946
  23 H     1.0000    0     1.008   74.443682  -42.791714  -208.000266
  24 H     1.0000    0     1.008   71.272911  -41.960991  -207.677123
  25 C     6.0000    0    12.011   73.146196  -40.344330  -210.931231
  26 H     1.0000    0     1.008   71.466041  -40.192963  -212.170891
  27 H     1.0000    0     1.008   74.888902  -40.673520  -211.906330
  28 C     6.0000    0    12.011   73.711980  -37.869923  -209.653776
  29 H     1.0000    0     1.008   73.975408  -36.372315  -211.144770
  30 H     1.0000    0     1.008   75.627974  -38.148090  -208.748597
  31 H     1.0000    0     1.008   72.321142  -37.300359  -208.072075
  32 H     1.0000    0     1.008   80.188450  -51.083644  -204.664899
  33 H     1.0000    0     1.008   67.598905  -47.891329  -213.932116

--------------------------------
INTERNAL COORDINATES (ANGSTROEM)
--------------------------------
 S      0   0   0     0.000000000000     0.00000000     0.00000000
 C      1   0   0     1.774500405748     0.00000000     0.00000000
 C      2   1   0     1.374332019564   111.59141846     0.00000000
 C      3   2   1     1.472253894544   111.02261958   359.73015032
 C      4   3   2     1.421995952878   116.07491048   353.46752078
 H      4   3   2     1.079709521121   121.92617463   188.83326372
 C      3   2   1     1.528637157732   125.64442568   171.27865746
 H      7   3   2     1.019790968777   109.77166417   102.47048569
 H      7   3   2     1.156534677388   108.48574688   348.52405417
 C      7   3   2     1.525761452521   118.41772112   219.80715676
 H     10   7   3     1.042032130023   104.95966005   190.51322891
 H     10   7   3     1.060348249397   108.21698930   303.27285195
 C     10   7   3     1.532094644596   113.56831869    65.43360340
 H     13  10   7     1.115739924893   110.71954294    54.34870702
 H     13  10   7     1.060928654529   113.47990701   184.14481442
 H     13  10   7     1.072522633794   114.85771172   292.29854192
 S      5   4   3     2.842394202077   146.42375638   230.58625363
 C     17   5   4     1.740116757577   116.85217910   286.60580785
 C     18  17   5     1.395699813714   112.76482470     2.22150134
 C     19  18  17     1.423730789159   110.18920821   359.51797120
 C     20  19  18     1.371446790802   115.90654137   355.34813457
 H     19  18  17     1.085667780677   123.66221326   176.60873733
 C     20  19  18     1.498965976932   117.87970140   183.79178112
 H     23  20  19     1.112748241967   111.79805546   184.86224863
 H     23  20  19     1.067700744591   112.67826261    65.44558493
 C     23  20  19     1.584209613656   114.54613913   301.82760054
 H     26  23  20     1.107813531241   106.82102194    52.12011440
 H     26  23  20     1.071006293165   109.47469226   287.40017591
 C     26  23  20     1.503710317847   113.95697702   175.44286502
 H     29  26  23     1.126947030698   108.79856449   182.34974443
 H     29  26  23     1.130973938692   104.80684108    69.22021853
 H     29  26  23     1.154602511690   115.23188028   311.45917117
 H      2   1   3     1.103852517323   132.02073978   176.30846654
 H     18  17   5     1.070822529647   123.46365138   180.44135388

---------------------------
INTERNAL COORDINATES (A.U.)
---------------------------
 S      0   0   0     0.000000000000     0.00000000     0.00000000
 C      1   0   0     3.353319791396     0.00000000     0.00000000
 C      2   1   0     2.597111134056   111.59141846     0.00000000
 C      3   2   1     2.782156660287   111.02261958   359.73015032
 C      4   3   2     2.687182914483   116.07491048   353.46752078
 H      4   3   2     2.040355299107   121.92617463   188.83326372
 C      3   2   1     2.888705586250   125.64442568   171.27865746
 H      7   3   2     1.927125644836   109.77166417   102.47048569
 H      7   3   2     2.185533804646   108.48574688   348.52405417
 C      7   3   2     2.883271290959   118.41772112   219.80715676
 H     10   7   3     1.969155348490   104.95966005   190.51322891
 H     10   7   3     2.003767797944   108.21698930   303.27285195
 C     10   7   3     2.895239289534   113.56831869    65.43360340
 H     13  10   7     2.108442894729   110.71954294    54.34870702
 H     13  10   7     2.004864604689   113.47990701   184.14481442
 H     13  10   7     2.026774050302   114.85771172   292.29854192
 S      5   4   3     5.371346606571   146.42375638   230.58625363
 C     17   5   4     3.288344112867   116.85217910   286.60580785
 C     18  17   5     2.637490413084   112.76482470     2.22150134
 C     19  18  17     2.690461279943   110.18920821   359.51797120
 C     20  19  18     2.591658841860   115.90654137   355.34813457
 H     19  18  17     2.051614777902   123.66221326   176.60873733
 C     20  19  18     2.832635180467   117.87970140   183.79178112
 H     23  20  19     2.102789433319   111.79805546   184.86224863
 H     23  20  19     2.017662000261   112.67826261    65.44558493
 C     23  20  19     2.993722308535   114.54613913   301.82760054
 H     26  23  20     2.093464181497   106.82102194    52.12011440
 H     26  23  20     2.023908581789   109.47469226   287.40017591
 C     26  23  20     2.841600685483   113.95697702   175.44286502
 H     29  26  23     2.129621255456   108.79856449   182.34974443
 H     29  26  23     2.137231008730   104.80684108    69.22021853
 H     29  26  23     2.181882540631   115.23188028   311.45917117
 H      2   1   3     2.085978949980   132.02073978   176.30846654
 H     18  17   5     2.023561319066   123.46365138   180.44135388

---------------------
BASIS SET INFORMATION
---------------------
There are 3 groups of distinct atoms

 Group   1 Type S   : 10s7p1d contracted to 4s3p1d pattern {5311/511/1}
 Group   2 Type C   : 7s4p1d contracted to 3s2p1d pattern {511/31/1}
 Group   3 Type H   : 4s1p contracted to 2s1p pattern {31/1}

Atom   0S    basis set group =>   1
Atom   1C    basis set group =>   2
Atom   2C    basis set group =>   2
Atom   3C    basis set group =>   2
Atom   4C    basis set group =>   2
Atom   5H    basis set group =>   3
Atom   6C    basis set group =>   2
Atom   7H    basis set group =>   3
Atom   8H    basis set group =>   3
Atom   9C    basis set group =>   2
Atom  10H    basis set group =>   3
Atom  11H    basis set group =>   3
Atom  12C    basis set group =>   2
Atom  13H    basis set group =>   3
Atom  14H    basis set group =>   3
Atom  15H    basis set group =>   3
Atom  16S    basis set group =>   1
Atom  17C    basis set group =>   2
Atom  18C    basis set group =>   2
Atom  19C    basis set group =>   2
Atom  20C    basis set group =>   2
Atom  21H    basis set group =>   3
Atom  22C    basis set group =>   2
Atom  23H    basis set group =>   3
Atom  24H    basis set group =>   3
Atom  25C    basis set group =>   2
Atom  26H    basis set group =>   3
Atom  27H    basis set group =>   3
Atom  28C    basis set group =>   2
Atom  29H    basis set group =>   3
Atom  30H    basis set group =>   3
Atom  31H    basis set group =>   3
Atom  32H    basis set group =>   3
Atom  33H    basis set group =>   3


           ************************************************************
           *        Program running with 24 parallel MPI-processes    *
           *              working on a common directory               *
           ************************************************************
------------------------------------------------------------------------------
                           ORCA GTO INTEGRAL CALCULATION
------------------------------------------------------------------------------

                         BASIS SET STATISTICS AND STARTUP INFO

 # of primitive gaussian shells          ...  294
 # of primitive gaussian functions       ...  534
 # of contracted shells                  ...  154
 # of contracted basis functions         ...  322
 Highest angular momentum                ...    2
 Maximum contraction depth               ...    5
 Integral package used                   ... LIBINT
 Integral threshhold            Thresh   ...  1.000e-10
 Primitive cut-off              TCut     ...  1.000e-11


------------------------------ INTEGRAL EVALUATION ----------------------------


 * One electron integrals 
 Pre-screening matrix                    ... done
 Shell pair data                         ... done (   0.003 sec)



           ************************************************************
           *        Program running with 24 parallel MPI-processes    *
           *              working on a common directory               *
           ************************************************************
-------------------------------------------------------------------------------
                                 ORCA SCF
-------------------------------------------------------------------------------

------------
SCF SETTINGS
------------
Hamiltonian:
 Density Functional     Method          .... DFT(GTOs)
 Exchange Functional    Exchange        .... WB97X-D3
 Correlation Functional Correlation     .... WB97X-D3
 Gradients option       PostSCFGGA      .... off
 Hybrid DFT is turned on
   Fraction HF Exchange ScalHFX         ....  0.195728
   Scaling of DF-GGA-X  ScalDFX         ....  0.000000
   Scaling of DF-GGA-C  ScalDFC         ....  1.000000
   Scaling of DF-LDA-C  ScalLDAC        ....  1.000000
   Perturbative correction              ....  0.000000
   Density functional embedding theory  .... OFF
 Long-range corrected/Screened/Range-Separated Hybrid DFT is turned on
   Amount of maximum screened exact exchange              ....  0.804272
   Range separation parameter mu (erf(mu*r12)/r12)        ....  0.250000


General Settings:
 Integral files         IntName         .... config_9582
 Hartree-Fock type      HFTyp           .... RHF
 Total Charge           Charge          ....    0
 Multiplicity           Mult            ....    1
 Number of Electrons    NEL             ....  134
 Basis Dimension        Dim             ....  322
 Nuclear Repulsion      ENuc            ....   1283.8247487274 Eh

Convergence Acceleration:
 DIIS                   CNVDIIS         .... on
   Start iteration      DIISMaxIt       ....    12
   Startup error        DIISStart       ....  0.200000
   # of expansion vecs  DIISMaxEq       ....     5
   Bias factor          DIISBfac        ....   1.050
   Max. coefficient     DIISMaxC        ....  10.000
 Newton-Raphson         CNVNR           .... off
 SOSCF                  CNVSOSCF        .... on
   Start iteration      SOSCFMaxIt      ....   150
   Startup grad/error   SOSCFStart      ....  0.003300
 Level Shifting         CNVShift        .... on
   Level shift para.    LevelShift      ....    0.2500
   Turn off err/grad.   ShiftErr        ....    0.0010
 Zerner damping         CNVZerner       .... off
 Static damping         CNVDamp         .... on
   Fraction old density DampFac         ....    0.7000
   Max. Damping (<1)    DampMax         ....    0.9800
   Min. Damping (>=0)   DampMin         ....    0.0000
   Turn off err/grad.   DampErr         ....    0.1000
 Fernandez-Rico         CNVRico         .... off

SCF Procedure:
 Maximum # iterations   MaxIter         ....   125
 SCF integral mode      SCFMode         .... Direct
   Integral package                     .... LIBINT
 Reset frequency        DirectResetFreq ....    20
 Integral Threshold     Thresh          ....  1.000e-10 Eh
 Primitive CutOff       TCut            ....  1.000e-11 Eh

Convergence Tolerance:
 Convergence Check Mode ConvCheckMode   .... Total+1el-Energy
 Convergence forced     ConvForced      .... 0
 Energy Change          TolE            ....  1.000e-06 Eh
 1-El. energy change                    ....  1.000e-03 Eh
 Orbital Gradient       TolG            ....  5.000e-05
 Orbital Rotation angle TolX            ....  5.000e-05
 DIIS Error             TolErr          ....  1.000e-06


Diagonalization of the overlap matrix:
Smallest eigenvalue                        ... 6.357e-04
Time for diagonalization                   ...    0.014 sec
Threshold for overlap eigenvalues          ... 1.000e-08
Number of eigenvalues below threshold      ... 0
Time for construction of square roots      ...    0.032 sec
Total time needed                          ...    0.046 sec

-------------------
DFT GRID GENERATION
-------------------

General Integration Accuracy     IntAcc      ...  4.340
Radial Grid Type                 RadialGrid  ... Gauss-Chebyshev
Angular Grid (max. acc.)         AngularGrid ... Lebedev-110
Angular grid pruning method      GridPruning ... 3 (G Style)
Weight generation scheme         WeightScheme... Becke
Basis function cutoff            BFCut       ...    1.0000e-10
Integration weight cutoff        WCut        ...    1.0000e-14
Grids for H and He will be reduced by one unit

# of grid points (after initial pruning)     ...  41088 (   0.0 sec)
# of grid points (after weights+screening)   ...  36908 (   0.0 sec)
nearest neighbour list constructed           ...    0.0 sec
Grid point re-assignment to atoms done       ...    0.0 sec
Grid point division into batches done        ...    0.0 sec
Reduced shell lists constructed in    0.1 sec

Total number of grid points                  ...    36908
Total number of batches                      ...      594
Average number of points per batch           ...       62
Average number of grid points per atom       ...     1086
Average number of shells per batch           ...    67.88 (44.08%)
Average number of basis functions per batch  ...   134.12 (41.65%)
Average number of large shells per batch     ...    42.12 (62.04%)
Average number of large basis fcns per batch ...    87.73 (65.41%)
Maximum spatial batch extension              ...  16.39, 14.17, 19.75 au
Average spatial batch extension              ...   0.20,  0.19,  0.21 au

Time for grid setup =    0.154 sec

------------------------------
INITIAL GUESS: MODEL POTENTIAL
------------------------------
Loading Hartree-Fock densities                     ... done
Calculating cut-offs                               ... done
Setting up the integral package                    ... done
Initializing the effective Hamiltonian             ... done
Starting the Coulomb interaction                   ... done (   0.0 sec)
Reading the grid                                   ... done
Mapping shells                                     ... done
Starting the XC term evaluation                    ... done (   0.0 sec)
  promolecular density results
     # of electrons  =    134.009262483
     EX              =   -126.692073336
     EC              =     -4.617250409
     EX+EC           =   -131.309323745
Transforming the Hamiltonian                       ... done (   0.0 sec)
Diagonalizing the Hamiltonian                      ... done (   0.0 sec)
Back transforming the eigenvectors                 ... done (   0.0 sec)
Now organizing SCF variables                       ... done
                      ------------------
                      INITIAL GUESS DONE (   0.3 sec)
                      ------------------
--------------
SCF ITERATIONS
--------------
ITER       Energy         Delta-E        Max-DP      RMS-DP      [F,P]     Damp
               ***  Starting incremental Fock matrix formation  ***
  0  -1339.4266472078   0.000000000000 0.06469108  0.00155722  0.1565507 0.7000
  1  -1339.6097990588  -0.183151850940 0.04340306  0.00113709  0.0943595 0.7000
                               ***Turning on DIIS***
  2  -1339.6982637383  -0.088464679515 0.07546318  0.00214901  0.0487532 0.0000
  3  -1339.8319367972  -0.133673058954 0.04341094  0.00096116  0.0409591 0.0000
  4  -1339.8608699567  -0.028933159518 0.00727042  0.00019939  0.0076189 0.0000
                      *** Initiating the SOSCF procedure ***
                           *** Shutting down DIIS ***
                      *** Re-Reading the Fockian *** 
                      *** Removing any level shift *** 
ITER      Energy       Delta-E        Grad      Rot      Max-DP    RMS-DP
  5  -1339.86177528  -0.0009053199  0.001463  0.001463  0.002832  0.000096
               *** Restarting incremental Fock matrix formation ***
  6  -1339.86197048  -0.0001952020  0.001221  0.003506  0.002592  0.000065
  7  -1339.86203961  -0.0000691330  0.000734  0.004677  0.002757  0.000065
  8  -1339.86205752  -0.0000179043  0.000531  0.000991  0.000848  0.000021
  9  -1339.86206344  -0.0000059212  0.000166  0.000402  0.000362  0.000009
 10  -1339.86206396  -0.0000005220  0.000066  0.000240  0.000152  0.000004
                 **** Energy Check signals convergence ****
              ***Rediagonalizing the Fockian in SOSCF/NRSCF***

               *****************************************************
               *                     SUCCESS                       *
               *           SCF CONVERGED AFTER  11 CYCLES          *
               *****************************************************

Setting up the final grid:

General Integration Accuracy     IntAcc      ...  4.670
Radial Grid Type                 RadialGrid  ... Gauss-Chebyshev
Angular Grid (max. acc.)         AngularGrid ... Lebedev-302
Angular grid pruning method      GridPruning ... 3 (G Style)
Weight generation scheme         WeightScheme... Becke
Basis function cutoff            BFCut       ...    1.0000e-10
Integration weight cutoff        WCut        ...    1.0000e-14
Grids for H and He will be reduced by one unit

# of grid points (after initial pruning)     ... 161752 (   0.0 sec)
# of grid points (after weights+screening)   ... 142446 (   0.1 sec)
nearest neighbour list constructed           ...    0.0 sec
Grid point re-assignment to atoms done       ...    0.0 sec
Grid point division into batches done        ...    0.4 sec
Reduced shell lists constructed in    0.5 sec

Total number of grid points                  ...   142446
Total number of batches                      ...     2238
Average number of points per batch           ...       63
Average number of grid points per atom       ...     4190
Average number of shells per batch           ...    60.52 (39.30%)
Average number of basis functions per batch  ...   118.96 (36.94%)
Average number of large shells per batch     ...    36.14 (59.71%)
Average number of large basis fcns per batch ...    74.71 (62.80%)
Maximum spatial batch extension              ...  12.42, 12.56, 15.36 au
Average spatial batch extension              ...   0.12,  0.13,  0.13 au

Final grid set up in    0.8 sec
Final integration                            ... done (   0.3 sec)
Change in XC energy                          ...     0.007022526
Integrated number of electrons               ...   134.000113948
Previous integrated no of electrons          ...   134.008773567

----------------
TOTAL SCF ENERGY
----------------

Total Energy       :        -1339.85504173 Eh          -36459.30924 eV

Components:
Nuclear Repulsion  :         1283.82474873 Eh           34934.64746 eV
Electronic Energy  :        -2623.67979046 Eh          -71393.95670 eV
One Electron Energy:        -4384.12347887 Eh         -119298.06486 eV
Two Electron Energy:         1760.44368841 Eh           47904.10816 eV

Virial components:
Potential Energy   :        -2671.12751808 Eh          -72685.07500 eV
Kinetic Energy     :         1331.27247635 Eh           36225.76576 eV
Virial Ratio       :            2.00644689


DFT components:
N(Alpha)           :       67.000056973993 electrons
N(Beta)            :       67.000056973993 electrons
N(Total)           :      134.000113947986 electrons
E(XC)              :      -94.212912953971 Eh       
DFET-embed. en.    :        0.000000000000 Eh       

---------------
SCF CONVERGENCE
---------------

  Last Energy change         ...   -2.9550e-07  Tolerance :   1.0000e-06
  Last MAX-Density change    ...    3.6884e-05  Tolerance :   1.0000e-05
  Last RMS-Density change    ...    7.2630e-07  Tolerance :   1.0000e-06
  Last Orbital Gradient      ...    7.2711e-06  Tolerance :   5.0000e-05
  Last Orbital Rotation      ...    2.1809e-05  Tolerance :   5.0000e-05

             **** THE GBW FILE WAS UPDATED (config_9582.gbw) ****
             **** DENSITY FILE WAS UPDATED (config_9582.scfp) ****
             **** ENERGY FILE WAS UPDATED (config_9582.en.tmp) ****
             **** THE GBW FILE WAS UPDATED (config_9582.gbw) ****
             **** DENSITY FILE WAS UPDATED (config_9582.scfp) ****
----------------
ORBITAL ENERGIES
----------------

  NO   OCC          E(Eh)            E(eV) 
   0   2.0000     -88.970492     -2421.0102 
   1   2.0000     -88.967011     -2420.9155 
   2   2.0000     -10.340089      -281.3681 
   3   2.0000     -10.330589      -281.1096 
   4   2.0000     -10.322334      -280.8850 
   5   2.0000     -10.316751      -280.7331 
   6   2.0000     -10.304215      -280.3919 
   7   2.0000     -10.302018      -280.3322 
   8   2.0000     -10.300626      -280.2943 
   9   2.0000     -10.297964      -280.2218 
  10   2.0000     -10.293223      -280.0928 
  11   2.0000     -10.292560      -280.0748 
  12   2.0000     -10.289023      -279.9785 
  13   2.0000     -10.288391      -279.9614 
  14   2.0000     -10.282786      -279.8088 
  15   2.0000     -10.273465      -279.5552 
  16   2.0000      -8.085001      -220.0041 
  17   2.0000      -8.080619      -219.8848 
  18   2.0000      -6.043519      -164.4525 
  19   2.0000      -6.039549      -164.3445 
  20   2.0000      -6.039395      -164.3403 
  21   2.0000      -6.035736      -164.2407 
  22   2.0000      -6.035200      -164.2261 
  23   2.0000      -6.031224      -164.1180 
  24   2.0000      -1.004362       -27.3301 
  25   2.0000      -0.978911       -26.6375 
  26   2.0000      -0.915128       -24.9019 
  27   2.0000      -0.910070       -24.7643 
  28   2.0000      -0.870924       -23.6990 
  29   2.0000      -0.856275       -23.3004 
  30   2.0000      -0.838151       -22.8073 
  31   2.0000      -0.811975       -22.0950 
  32   2.0000      -0.787821       -21.4377 
  33   2.0000      -0.773334       -21.0435 
  34   2.0000      -0.712285       -19.3823 
  35   2.0000      -0.697060       -18.9680 
  36   2.0000      -0.691641       -18.8205 
  37   2.0000      -0.661952       -18.0126 
  38   2.0000      -0.632715       -17.2170 
  39   2.0000      -0.620495       -16.8845 
  40   2.0000      -0.601470       -16.3668 
  41   2.0000      -0.571517       -15.5518 
  42   2.0000      -0.571087       -15.5401 
  43   2.0000      -0.563078       -15.3221 
  44   2.0000      -0.538157       -14.6440 
  45   2.0000      -0.524019       -14.2593 
  46   2.0000      -0.519908       -14.1474 
  47   2.0000      -0.513796       -13.9811 
  48   2.0000      -0.504272       -13.7219 
  49   2.0000      -0.496524       -13.5111 
  50   2.0000      -0.489463       -13.3190 
  51   2.0000      -0.479187       -13.0393 
  52   2.0000      -0.470975       -12.8159 
  53   2.0000      -0.461018       -12.5449 
  54   2.0000      -0.459341       -12.4993 
  55   2.0000      -0.455318       -12.3898 
  56   2.0000      -0.442320       -12.0362 
  57   2.0000      -0.432655       -11.7731 
  58   2.0000      -0.430798       -11.7226 
  59   2.0000      -0.430409       -11.7120 
  60   2.0000      -0.423638       -11.5278 
  61   2.0000      -0.417260       -11.3542 
  62   2.0000      -0.409992       -11.1565 
  63   2.0000      -0.353119        -9.6088 
  64   2.0000      -0.334588        -9.1046 
  65   2.0000      -0.326174        -8.8756 
  66   2.0000      -0.290056        -7.8928 
  67   0.0000       0.022301         0.6068 
  68   0.0000       0.074378         2.0239 
  69   0.0000       0.109036         2.9670 
  70   0.0000       0.113886         3.0990 
  71   0.0000       0.115974         3.1558 
  72   0.0000       0.133351         3.6287 
  73   0.0000       0.144227         3.9246 
  74   0.0000       0.151467         4.1216 
  75   0.0000       0.158662         4.3174 
  76   0.0000       0.165542         4.5046 
  77   0.0000       0.173366         4.7175 
  78   0.0000       0.182922         4.9776 
  79   0.0000       0.195503         5.3199 
  80   0.0000       0.200469         5.4550 
  81   0.0000       0.208029         5.6607 
  82   0.0000       0.210993         5.7414 
  83   0.0000       0.219149         5.9634 
  84   0.0000       0.226102         6.1526 
  85   0.0000       0.235062         6.3964 
  86   0.0000       0.235984         6.4214 
  87   0.0000       0.238875         6.5001 
  88   0.0000       0.242206         6.5908 
  89   0.0000       0.254279         6.9193 
  90   0.0000       0.269445         7.3320 
  91   0.0000       0.281350         7.6559 
  92   0.0000       0.284299         7.7362 
  93   0.0000       0.302766         8.2387 
  94   0.0000       0.309347         8.4178 
  95   0.0000       0.313344         8.5265 
  96   0.0000       0.326958         8.8970 
  97   0.0000       0.330563         8.9951 
  98   0.0000       0.339767         9.2455 
  99   0.0000       0.373410        10.1610 
 100   0.0000       0.376019        10.2320 
 101   0.0000       0.395334        10.7576 
 102   0.0000       0.413675        11.2567 
 103   0.0000       0.423556        11.5255 
 104   0.0000       0.426076        11.5941 
 105   0.0000       0.455807        12.4031 
 106   0.0000       0.461211        12.5502 
 107   0.0000       0.470579        12.8051 
 108   0.0000       0.478549        13.0220 
 109   0.0000       0.486977        13.2513 
 110   0.0000       0.503923        13.7124 
 111   0.0000       0.514766        14.0075 
 112   0.0000       0.520300        14.1581 
 113   0.0000       0.521056        14.1787 
 114   0.0000       0.529711        14.4142 
 115   0.0000       0.534428        14.5425 
 116   0.0000       0.539222        14.6730 
 117   0.0000       0.555164        15.1068 
 118   0.0000       0.564768        15.3681 
 119   0.0000       0.570177        15.5153 
 120   0.0000       0.583440        15.8762 
 121   0.0000       0.588253        16.0072 
 122   0.0000       0.599270        16.3070 
 123   0.0000       0.602793        16.4028 
 124   0.0000       0.610792        16.6205 
 125   0.0000       0.621192        16.9035 
 126   0.0000       0.635538        17.2939 
 127   0.0000       0.646119        17.5818 
 128   0.0000       0.651693        17.7335 
 129   0.0000       0.668508        18.1910 
 130   0.0000       0.675420        18.3791 
 131   0.0000       0.679046        18.4778 
 132   0.0000       0.696001        18.9392 
 133   0.0000       0.700458        19.0604 
 134   0.0000       0.704460        19.1693 
 135   0.0000       0.709045        19.2941 
 136   0.0000       0.712205        19.3801 
 137   0.0000       0.725976        19.7548 
 138   0.0000       0.727386        19.7932 
 139   0.0000       0.733579        19.9617 
 140   0.0000       0.739022        20.1098 
 141   0.0000       0.744105        20.2481 
 142   0.0000       0.751343        20.4451 
 143   0.0000       0.755956        20.5706 
 144   0.0000       0.758352        20.6358 
 145   0.0000       0.763024        20.7629 
 146   0.0000       0.767633        20.8884 
 147   0.0000       0.774761        21.0823 
 148   0.0000       0.778291        21.1784 
 149   0.0000       0.782424        21.2908 
 150   0.0000       0.788465        21.4552 
 151   0.0000       0.791019        21.5247 
 152   0.0000       0.794714        21.6253 
 153   0.0000       0.800572        21.7847 
 154   0.0000       0.802922        21.8486 
 155   0.0000       0.811880        22.0924 
 156   0.0000       0.817969        22.2581 
 157   0.0000       0.826097        22.4792 
 158   0.0000       0.828507        22.5448 
 159   0.0000       0.831064        22.6144 
 160   0.0000       0.837309        22.7843 
 161   0.0000       0.840570        22.8731 
 162   0.0000       0.845593        23.0098 
 163   0.0000       0.847995        23.0751 
 164   0.0000       0.857012        23.3205 
 165   0.0000       0.868408        23.6306 
 166   0.0000       0.877416        23.8757 
 167   0.0000       0.880320        23.9547 
 168   0.0000       0.895658        24.3721 
 169   0.0000       0.897407        24.4197 
 170   0.0000       0.910491        24.7757 
 171   0.0000       0.920804        25.0563 
 172   0.0000       0.925321        25.1793 
 173   0.0000       0.928798        25.2739 
 174   0.0000       0.952519        25.9194 
 175   0.0000       0.971177        26.4271 
 176   0.0000       0.983809        26.7708 
 177   0.0000       0.998464        27.1696 
 178   0.0000       1.012748        27.5583 
 179   0.0000       1.033242        28.1160 
 180   0.0000       1.051257        28.6062 
 181   0.0000       1.076680        29.2980 
 182   0.0000       1.094785        29.7906 
 183   0.0000       1.117771        30.4161 
 184   0.0000       1.131853        30.7993 
 185   0.0000       1.142867        31.0990 
 186   0.0000       1.144133        31.1334 
 187   0.0000       1.152870        31.3712 
 188   0.0000       1.173888        31.9431 
 189   0.0000       1.192788        32.4574 
 190   0.0000       1.211975        32.9795 
 191   0.0000       1.228927        33.4408 
 192   0.0000       1.261789        34.3350 
 193   0.0000       1.270495        34.5719 
 194   0.0000       1.290468        35.1154 
 195   0.0000       1.297823        35.3156 
 196   0.0000       1.320633        35.9363 
 197   0.0000       1.324536        36.0424 
 198   0.0000       1.340956        36.4893 
 199   0.0000       1.354739        36.8643 
 200   0.0000       1.368654        37.2430 
 201   0.0000       1.415885        38.5282 
 202   0.0000       1.432360        38.9765 
 203   0.0000       1.445598        39.3367 
 204   0.0000       1.458262        39.6813 
 205   0.0000       1.463430        39.8219 
 206   0.0000       1.484232        40.3880 
 207   0.0000       1.509070        41.0639 
 208   0.0000       1.527248        41.5585 
 209   0.0000       1.549677        42.1689 
 210   0.0000       1.563480        42.5445 
 211   0.0000       1.602776        43.6138 
 212   0.0000       1.614409        43.9303 
 213   0.0000       1.621228        44.1159 
 214   0.0000       1.628308        44.3085 
 215   0.0000       1.661235        45.2045 
 216   0.0000       1.671745        45.4905 
 217   0.0000       1.695060        46.1249 
 218   0.0000       1.742024        47.4029 
 219   0.0000       1.770088        48.1665 
 220   0.0000       1.789668        48.6993 
 221   0.0000       1.794073        48.8192 
 222   0.0000       1.801871        49.0314 
 223   0.0000       1.804273        49.0968 
 224   0.0000       1.808948        49.2240 
 225   0.0000       1.814095        49.3640 
 226   0.0000       1.823953        49.6323 
 227   0.0000       1.834529        49.9201 
 228   0.0000       1.842043        50.1245 
 229   0.0000       1.850603        50.3575 
 230   0.0000       1.862282        50.6753 
 231   0.0000       1.869665        50.8762 
 232   0.0000       1.877767        51.0966 
 233   0.0000       1.880237        51.1638 
 234   0.0000       1.891229        51.4630 
 235   0.0000       1.902408        51.7672 
 236   0.0000       1.914715        52.1020 
 237   0.0000       1.921523        52.2873 
 238   0.0000       1.935550        52.6690 
 239   0.0000       1.942823        52.8669 
 240   0.0000       1.946040        52.9545 
 241   0.0000       1.966542        53.5123 
 242   0.0000       1.969689        53.5980 
 243   0.0000       1.974685        53.7339 
 244   0.0000       1.980728        53.8983 
 245   0.0000       1.987271        54.0764 
 246   0.0000       1.992593        54.2212 
 247   0.0000       1.994032        54.2604 
 248   0.0000       2.021888        55.0184 
 249   0.0000       2.026032        55.1311 
 250   0.0000       2.036899        55.4268 
 251   0.0000       2.056201        55.9521 
 252   0.0000       2.063645        56.1546 
 253   0.0000       2.072645        56.3995 
 254   0.0000       2.096078        57.0372 
 255   0.0000       2.109696        57.4078 
 256   0.0000       2.129150        57.9371 
 257   0.0000       2.135594        58.1125 
 258   0.0000       2.139573        58.2207 
 259   0.0000       2.147315        58.4314 
 260   0.0000       2.154080        58.6155 
 261   0.0000       2.174905        59.1822 
 262   0.0000       2.180436        59.3327 
 263   0.0000       2.202978        59.9461 
 264   0.0000       2.219403        60.3930 
 265   0.0000       2.225182        60.5503 
 266   0.0000       2.248431        61.1829 
 267   0.0000       2.257581        61.4319 
 268   0.0000       2.273963        61.8777 
 269   0.0000       2.297179        62.5094 
 270   0.0000       2.327493        63.3343 
 271   0.0000       2.337682        63.6116 
 272   0.0000       2.367700        64.4284 
 273   0.0000       2.375805        64.6490 
 274   0.0000       2.397662        65.2437 
 275   0.0000       2.427496        66.0555 
 276   0.0000       2.434398        66.2433 
 277   0.0000       2.453310        66.7580 
 278   0.0000       2.458172        66.8903 
 279   0.0000       2.464582        67.0647 
 280   0.0000       2.478624        67.4468 
 281   0.0000       2.498956        68.0001 
 282   0.0000       2.506349        68.2012 
 283   0.0000       2.538166        69.0670 
 284   0.0000       2.549177        69.3666 
 285   0.0000       2.563408        69.7539 
 286   0.0000       2.572350        69.9972 
 287   0.0000       2.594311        70.5948 
 288   0.0000       2.608617        70.9841 
 289   0.0000       2.618508        71.2532 
 290   0.0000       2.639942        71.8365 
 291   0.0000       2.652215        72.1704 
 292   0.0000       2.698817        73.4385 
 293   0.0000       2.704982        73.6063 
 294   0.0000       2.727662        74.2234 
 295   0.0000       2.733802        74.3905 
 296   0.0000       2.741785        74.6078 
 297   0.0000       2.757180        75.0267 
 298   0.0000       2.791483        75.9601 
 299   0.0000       2.803916        76.2984 
 300   0.0000       2.824446        76.8571 
 301   0.0000       2.863194        77.9115 
 302   0.0000       2.896649        78.8218 
 303   0.0000       2.919993        79.4570 
 304   0.0000       2.942368        80.0659 
 305   0.0000       2.948159        80.2235 
 306   0.0000       2.975132        80.9575 
 307   0.0000       2.982871        81.1681 
 308   0.0000       3.015597        82.0586 
 309   0.0000       3.029112        82.4263 
 310   0.0000       3.064657        83.3936 
 311   0.0000       3.087418        84.0129 
 312   0.0000       3.114972        84.7627 
 313   0.0000       3.134859        85.3039 
 314   0.0000       3.148189        85.6666 
 315   0.0000       3.161675        86.0335 
 316   0.0000       3.196735        86.9876 
 317   0.0000       3.234697        88.0206 
 318   0.0000       3.258231        88.6610 
 319   0.0000       3.264102        88.8207 
 320   0.0000       3.318845        90.3104 
 321   0.0000       3.431459        93.3747 

                    ********************************
                    * MULLIKEN POPULATION ANALYSIS *
                    ********************************

-----------------------
MULLIKEN ATOMIC CHARGES
-----------------------
   0 S :    0.101785
   1 C :   -0.117596
   2 C :   -0.099852
   3 C :    0.019164
   4 C :   -0.166379
   5 H :    0.013555
   6 C :    0.065263
   7 H :    0.013907
   8 H :    0.028474
   9 C :   -0.028377
  10 H :    0.015739
  11 H :    0.009255
  12 C :   -0.033807
  13 H :    0.037451
  14 H :    0.018498
  15 H :    0.024755
  16 S :    0.118099
  17 C :   -0.086996
  18 C :   -0.026936
  19 C :   -0.025956
  20 C :   -0.107862
  21 H :    0.028808
  22 C :    0.040577
  23 H :    0.010545
  24 H :    0.031971
  25 C :   -0.092691
  26 H :    0.032968
  27 H :    0.029247
  28 C :   -0.087862
  29 H :    0.050665
  30 H :    0.029880
  31 H :    0.047342
  32 H :    0.051072
  33 H :    0.055293
Sum of atomic charges:    0.0000000

--------------------------------
MULLIKEN REDUCED ORBITAL CHARGES
--------------------------------
  0 S s       :     5.848999  s :     5.848999
      pz      :     3.449308  p :     9.947220
      px      :     3.131109
      py      :     3.366803
      dz2     :     0.018713  d :     0.101996
      dxz     :     0.013573
      dyz     :     0.020367
      dx2y2   :     0.032392
      dxy     :     0.016952
  1 C s       :     3.178689  s :     3.178689
      pz      :     1.055427  p :     2.905613
      px      :     0.821140
      py      :     1.029045
      dz2     :     0.003809  d :     0.033294
      dxz     :     0.005910
      dyz     :     0.005543
      dx2y2   :     0.010474
      dxy     :     0.007559
  2 C s       :     3.088125  s :     3.088125
      pz      :     1.007412  p :     2.969666
      px      :     1.000410
      py      :     0.961844
      dz2     :     0.005934  d :     0.042061
      dxz     :     0.008171
      dyz     :     0.006354
      dx2y2   :     0.010465
      dxy     :     0.011136
  3 C s       :     3.165242  s :     3.165242
      pz      :     0.970753  p :     2.783968
      px      :     0.910445
      py      :     0.902770
      dz2     :     0.003699  d :     0.031626
      dxz     :     0.005990
      dyz     :     0.005448
      dx2y2   :     0.007827
      dxy     :     0.008662
  4 C s       :     3.099088  s :     3.099088
      pz      :     1.026760  p :     3.025331
      px      :     1.016719
      py      :     0.981851
      dz2     :     0.006651  d :     0.041960
      dxz     :     0.007698
      dyz     :     0.008167
      dx2y2   :     0.012545
      dxy     :     0.006899
  5 H s       :     0.962487  s :     0.962487
      pz      :     0.008527  p :     0.023958
      px      :     0.003662
      py      :     0.011770
  6 C s       :     2.952921  s :     2.952921
      pz      :     1.002523  p :     2.945503
      px      :     0.976072
      py      :     0.966909
      dz2     :     0.005080  d :     0.036313
      dxz     :     0.009349
      dyz     :     0.005897
      dx2y2   :     0.007879
      dxy     :     0.008107
  7 H s       :     0.959123  s :     0.959123
      pz      :     0.011874  p :     0.026970
      px      :     0.008763
      py      :     0.006333
  8 H s       :     0.951500  s :     0.951500
      pz      :     0.009831  p :     0.020027
      px      :     0.005258
      py      :     0.004938
  9 C s       :     2.992712  s :     2.992712
      pz      :     1.008769  p :     2.997415
      px      :     1.013741
      py      :     0.974905
      dz2     :     0.008633  d :     0.038250
      dxz     :     0.005761
      dyz     :     0.008547
      dx2y2   :     0.010368
      dxy     :     0.004940
 10 H s       :     0.959239  s :     0.959239
      pz      :     0.004818  p :     0.025022
      px      :     0.014540
      py      :     0.005664
 11 H s       :     0.966291  s :     0.966291
      pz      :     0.010891  p :     0.024454
      px      :     0.007306
      py      :     0.006258
 12 C s       :     2.992039  s :     2.992039
      pz      :     0.985284  p :     3.013382
      px      :     1.020075
      py      :     1.008023
      dz2     :     0.008025  d :     0.028386
      dxz     :     0.004307
      dyz     :     0.004348
      dx2y2   :     0.010413
      dxy     :     0.001292
 13 H s       :     0.940204  s :     0.940204
      pz      :     0.010195  p :     0.022345
      px      :     0.005820
      py      :     0.006330
 14 H s       :     0.955767  s :     0.955767
      pz      :     0.004472  p :     0.025735
      px      :     0.006547
      py      :     0.014716
 15 H s       :     0.949677  s :     0.949677
      pz      :     0.004353  p :     0.025568
      px      :     0.014577
      py      :     0.006637
 16 S s       :     5.844790  s :     5.844790
      pz      :     3.378402  p :     9.931257
      px      :     3.220301
      py      :     3.332554
      dz2     :     0.019898  d :     0.105854
      dxz     :     0.013056
      dyz     :     0.024144
      dx2y2   :     0.015349
      dxy     :     0.033406
 17 C s       :     3.152307  s :     3.152307
      pz      :     1.021666  p :     2.899893
      px      :     0.945131
      py      :     0.933096
      dz2     :     0.003589  d :     0.034796
      dxz     :     0.004572
      dyz     :     0.008635
      dx2y2   :     0.006980
      dxy     :     0.011020
 18 C s       :     3.186089  s :     3.186089
      pz      :     0.998316  p :     2.806959
      px      :     0.949362
      py      :     0.859280
      dz2     :     0.005502  d :     0.033888
      dxz     :     0.004777
      dyz     :     0.006652
      dx2y2   :     0.008529
      dxy     :     0.008429
 19 C s       :     3.052807  s :     3.052807
      pz      :     0.999972  p :     2.928442
      px      :     0.968661
      py      :     0.959809
      dz2     :     0.006538  d :     0.044707
      dxz     :     0.006275
      dyz     :     0.009983
      dx2y2   :     0.011877
      dxy     :     0.010034
 20 C s       :     3.044714  s :     3.044714
      pz      :     1.018721  p :     3.020039
      px      :     1.036132
      py      :     0.965186
      dz2     :     0.005972  d :     0.043109
      dxz     :     0.006095
      dyz     :     0.010584
      dx2y2   :     0.008512
      dxy     :     0.011946
 21 H s       :     0.947568  s :     0.947568
      pz      :     0.005365  p :     0.023624
      px      :     0.007035
      py      :     0.011224
 22 C s       :     2.975347  s :     2.975347
      pz      :     1.009886  p :     2.949808
      px      :     1.009864
      py      :     0.930058
      dz2     :     0.003238  d :     0.034269
      dxz     :     0.009276
      dyz     :     0.008870
      dx2y2   :     0.007854
      dxy     :     0.005030
 23 H s       :     0.966423  s :     0.966423
      pz      :     0.006668  p :     0.023033
      px      :     0.012422
      py      :     0.003942
 24 H s       :     0.944125  s :     0.944125
      pz      :     0.009328  p :     0.023903
      px      :     0.009494
      py      :     0.005082
 25 C s       :     3.065579  s :     3.065579
      pz      :     1.031973  p :     2.990276
      px      :     1.007714
      py      :     0.950589
      dz2     :     0.002845  d :     0.036836
      dxz     :     0.010551
      dyz     :     0.008765
      dx2y2   :     0.009912
      dxy     :     0.004764
 26 H s       :     0.945327  s :     0.945327
      pz      :     0.007457  p :     0.021705
      px      :     0.010459
      py      :     0.003789
 27 H s       :     0.947240  s :     0.947240
      pz      :     0.006710  p :     0.023513
      px      :     0.011649
      py      :     0.005155
 28 C s       :     3.069563  s :     3.069563
      pz      :     0.996402  p :     2.990027
      px      :     1.018325
      py      :     0.975301
      dz2     :     0.002437  d :     0.028272
      dxz     :     0.006869
      dyz     :     0.008520
      dx2y2   :     0.007030
      dxy     :     0.003415
 29 H s       :     0.927572  s :     0.927572
      pz      :     0.008606  p :     0.021763
      px      :     0.004423
      py      :     0.008735
 30 H s       :     0.948146  s :     0.948146
      pz      :     0.006002  p :     0.021973
      px      :     0.011508
      py      :     0.004463
 31 H s       :     0.932467  s :     0.932467
      pz      :     0.008612  p :     0.020191
      px      :     0.007693
      py      :     0.003886
 32 H s       :     0.925105  s :     0.925105
      pz      :     0.008075  p :     0.023823
      px      :     0.008819
      py      :     0.006929
 33 H s       :     0.920632  s :     0.920632
      pz      :     0.009239  p :     0.024075
      px      :     0.011131
      py      :     0.003706


                     *******************************
                     * LOEWDIN POPULATION ANALYSIS *
                     *******************************

----------------------
LOEWDIN ATOMIC CHARGES
----------------------
   0 S :    0.386434
   1 C :   -0.199083
   2 C :   -0.062571
   3 C :   -0.069727
   4 C :   -0.178065
   5 H :    0.022584
   6 C :   -0.026901
   7 H :    0.020228
   8 H :    0.036560
   9 C :   -0.029313
  10 H :    0.020767
  11 H :    0.018501
  12 C :   -0.067589
  13 H :    0.031269
  14 H :    0.021749
  15 H :    0.025827
  16 S :    0.409292
  17 C :   -0.174761
  18 C :   -0.067875
  19 C :   -0.053684
  20 C :   -0.201700
  21 H :    0.034453
  22 C :   -0.031989
  23 H :    0.028765
  24 H :    0.027877
  25 C :   -0.042688
  26 H :    0.019043
  27 H :    0.023783
  28 C :   -0.077227
  29 H :    0.033894
  30 H :    0.027274
  31 H :    0.030222
  32 H :    0.038237
  33 H :    0.026414

-------------------------------
LOEWDIN REDUCED ORBITAL CHARGES
-------------------------------
  0 S s       :     5.521277  s :     5.521277
      pz      :     3.433396  p :     9.966993
      px      :     3.151527
      py      :     3.382070
      dz2     :     0.022374  d :     0.125295
      dxz     :     0.016247
      dyz     :     0.025923
      dx2y2   :     0.040980
      dxy     :     0.019771
  1 C s       :     2.937030  s :     2.937030
      pz      :     1.093773  p :     3.183748
      px      :     0.993587
      py      :     1.096389
      dz2     :     0.007395  d :     0.078305
      dxz     :     0.013071
      dyz     :     0.013046
      dx2y2   :     0.025044
      dxy     :     0.019750
  2 C s       :     2.873071  s :     2.873071
      pz      :     1.006398  p :     3.086302
      px      :     1.030115
      py      :     1.049789
      dz2     :     0.012415  d :     0.103198
      dxz     :     0.017955
      dyz     :     0.015762
      dx2y2   :     0.026045
      dxy     :     0.031021
  3 C s       :     2.882067  s :     2.882067
      pz      :     1.032502  p :     3.105328
      px      :     1.026639
      py      :     1.046187
      dz2     :     0.008663  d :     0.082332
      dxz     :     0.014794
      dyz     :     0.012616
      dx2y2   :     0.020646
      dxy     :     0.025613
  4 C s       :     2.920636  s :     2.920636
      pz      :     1.045567  p :     3.159143
      px      :     1.078539
      py      :     1.035037
      dz2     :     0.014303  d :     0.098286
      dxz     :     0.017730
      dyz     :     0.017666
      dx2y2   :     0.029646
      dxy     :     0.018941
  5 H s       :     0.905064  s :     0.905064
      pz      :     0.025450  p :     0.072353
      px      :     0.012699
      py      :     0.034203
  6 C s       :     2.821626  s :     2.821626
      pz      :     1.068845  p :     3.115087
      px      :     1.024484
      py      :     1.021759
      dz2     :     0.013289  d :     0.090188
      dxz     :     0.022797
      dyz     :     0.013571
      dx2y2   :     0.021470
      dxy     :     0.019061
  7 H s       :     0.896478  s :     0.896478
      pz      :     0.034996  p :     0.083294
      px      :     0.027554
      py      :     0.020744
  8 H s       :     0.907841  s :     0.907841
      pz      :     0.024956  p :     0.055599
      px      :     0.015098
      py      :     0.015545
  9 C s       :     2.808991  s :     2.808991
      pz      :     1.045841  p :     3.126502
      px      :     1.066202
      py      :     1.014460
      dz2     :     0.021282  d :     0.093820
      dxz     :     0.015266
      dyz     :     0.018863
      dx2y2   :     0.027178
      dxy     :     0.011230
 10 H s       :     0.903599  s :     0.903599
      pz      :     0.016011  p :     0.075634
      px      :     0.041100
      py      :     0.018523
 11 H s       :     0.908936  s :     0.908936
      pz      :     0.032407  p :     0.072563
      px      :     0.019774
      py      :     0.020382
 12 C s       :     2.823443  s :     2.823443
      pz      :     1.033186  p :     3.171745
      px      :     1.069284
      py      :     1.069274
      dz2     :     0.018986  d :     0.072401
      dxz     :     0.011899
      dyz     :     0.012021
      dx2y2   :     0.026205
      dxy     :     0.003291
 13 H s       :     0.907003  s :     0.907003
      pz      :     0.029682  p :     0.061728
      px      :     0.015041
      py      :     0.017005
 14 H s       :     0.904661  s :     0.904661
      pz      :     0.014531  p :     0.073590
      px      :     0.017854
      py      :     0.041206
 15 H s       :     0.902262  s :     0.902262
      pz      :     0.014059  p :     0.071910
      px      :     0.040673
      py      :     0.017179
 16 S s       :     5.511408  s :     5.511408
      pz      :     3.365240  p :     9.949073
      px      :     3.212499
      py      :     3.371333
      dz2     :     0.024006  d :     0.130227
      dxz     :     0.017269
      dyz     :     0.029688
      dx2y2   :     0.016907
      dxy     :     0.042358
 17 C s       :     2.931693  s :     2.931693
      pz      :     1.064961  p :     3.161678
      px      :     1.040325
      py      :     1.056393
      dz2     :     0.007316  d :     0.081390
      dxz     :     0.009437
      dyz     :     0.019996
      dx2y2   :     0.018650
      dxy     :     0.025992
 18 C s       :     2.868603  s :     2.868603
      pz      :     1.027459  p :     3.110992
      px      :     1.031431
      py      :     1.052102
      dz2     :     0.012478  d :     0.088280
      dxz     :     0.012172
      dyz     :     0.016562
      dx2y2   :     0.025273
      dxy     :     0.021795
 19 C s       :     2.850171  s :     2.850171
      pz      :     1.006427  p :     3.090413
      px      :     1.026484
      py      :     1.057502
      dz2     :     0.015167  d :     0.113099
      dxz     :     0.015589
      dyz     :     0.023642
      dx2y2   :     0.033059
      dxy     :     0.025643
 20 C s       :     2.902239  s :     2.902239
      pz      :     1.069709  p :     3.195318
      px      :     1.067425
      py      :     1.058184
      dz2     :     0.013009  d :     0.104143
      dxz     :     0.013919
      dyz     :     0.024381
      dx2y2   :     0.023201
      dxy     :     0.029632
 21 H s       :     0.895450  s :     0.895450
      pz      :     0.016481  p :     0.070097
      px      :     0.021489
      py      :     0.032128
 22 C s       :     2.829952  s :     2.829952
      pz      :     1.044977  p :     3.116370
      px      :     1.068464
      py      :     1.002929
      dz2     :     0.006801  d :     0.085667
      dxz     :     0.022751
      dyz     :     0.023872
      dx2y2   :     0.020592
      dxy     :     0.011652
 23 H s       :     0.904583  s :     0.904583
      pz      :     0.020033  p :     0.066652
      px      :     0.033951
      py      :     0.012668
 24 H s       :     0.899642  s :     0.899642
      pz      :     0.028586  p :     0.072481
      px      :     0.026876
      py      :     0.017018
 25 C s       :     2.837538  s :     2.837538
      pz      :     1.049956  p :     3.116382
      px      :     1.054589
      py      :     1.011836
      dz2     :     0.005455  d :     0.088769
      dxz     :     0.025585
      dyz     :     0.022291
      dx2y2   :     0.025738
      dxy     :     0.009700
 26 H s       :     0.916451  s :     0.916451
      pz      :     0.022684  p :     0.064507
      px      :     0.029169
      py      :     0.012653
 27 H s       :     0.904595  s :     0.904595
      pz      :     0.021209  p :     0.071622
      px      :     0.034042
      py      :     0.016371
 28 C s       :     2.863739  s :     2.863739
      pz      :     1.047988  p :     3.142913
      px      :     1.058531
      py      :     1.036394
      dz2     :     0.005616  d :     0.070575
      dxz     :     0.017333
      dyz     :     0.022012
      dx2y2   :     0.018322
      dxy     :     0.007292
 29 H s       :     0.905109  s :     0.905109
      pz      :     0.024474  p :     0.060996
      px      :     0.011574
      py      :     0.024948
 30 H s       :     0.912712  s :     0.912712
      pz      :     0.015502  p :     0.060014
      px      :     0.032359
      py      :     0.012152
 31 H s       :     0.913468  s :     0.913468
      pz      :     0.024362  p :     0.056310
      px      :     0.020808
      py      :     0.011140
 32 H s       :     0.889671  s :     0.889671
      pz      :     0.024020  p :     0.072092
      px      :     0.028119
      py      :     0.019953
 33 H s       :     0.897068  s :     0.897068
      pz      :     0.028644  p :     0.076518
      px      :     0.034705
      py      :     0.013169


                      *****************************
                      * MAYER POPULATION ANALYSIS *
                      *****************************

  NA   - Mulliken gross atomic population
  ZA   - Total nuclear charge
  QA   - Mulliken gross atomic charge
  VA   - Mayer's total valence
  BVA  - Mayer's bonded valence
  FA   - Mayer's free valence

  ATOM       NA         ZA         QA         VA         BVA        FA
  0 S     15.8982    16.0000     0.1018     2.4461     2.4461     0.0000
  1 C      6.1176     6.0000    -0.1176     3.8517     3.8517     0.0000
  2 C      6.0999     6.0000    -0.0999     4.0499     4.0499     0.0000
  3 C      5.9808     6.0000     0.0192     3.9253     3.9253    -0.0000
  4 C      6.1664     6.0000    -0.1664     3.9383     3.9383     0.0000
  5 H      0.9864     1.0000     0.0136     1.0007     1.0007    -0.0000
  6 C      5.9347     6.0000     0.0653     3.9778     3.9778     0.0000
  7 H      0.9861     1.0000     0.0139     0.9854     0.9854    -0.0000
  8 H      0.9715     1.0000     0.0285     0.9894     0.9894     0.0000
  9 C      6.0284     6.0000    -0.0284     4.1193     4.1193     0.0000
 10 H      0.9843     1.0000     0.0157     0.9821     0.9821    -0.0000
 11 H      0.9907     1.0000     0.0093     0.9840     0.9840    -0.0000
 12 C      6.0338     6.0000    -0.0338     3.9867     3.9867     0.0000
 13 H      0.9625     1.0000     0.0375     0.9912     0.9912     0.0000
 14 H      0.9815     1.0000     0.0185     0.9882     0.9882    -0.0000
 15 H      0.9752     1.0000     0.0248     0.9964     0.9964     0.0000
 16 S     15.8819    16.0000     0.1181     2.4809     2.4809    -0.0000
 17 C      6.0870     6.0000    -0.0870     3.8450     3.8450     0.0000
 18 C      6.0269     6.0000    -0.0269     3.9293     3.9293     0.0000
 19 C      6.0260     6.0000    -0.0260     4.0339     4.0339     0.0000
 20 C      6.1079     6.0000    -0.1079     3.8971     3.8971     0.0000
 21 H      0.9712     1.0000     0.0288     0.9969     0.9969     0.0000
 22 C      5.9594     6.0000     0.0406     3.9620     3.9620     0.0000
 23 H      0.9895     1.0000     0.0105     1.0156     1.0156     0.0000
 24 H      0.9680     1.0000     0.0320     0.9897     0.9897     0.0000
 25 C      6.0927     6.0000    -0.0927     4.0780     4.0780    -0.0000
 26 H      0.9670     1.0000     0.0330     0.9827     0.9827    -0.0000
 27 H      0.9708     1.0000     0.0292     0.9759     0.9759    -0.0000
 28 C      6.0879     6.0000    -0.0879     3.9941     3.9941    -0.0000
 29 H      0.9493     1.0000     0.0507     0.9822     0.9822     0.0000
 30 H      0.9701     1.0000     0.0299     0.9846     0.9846    -0.0000
 31 H      0.9527     1.0000     0.0473     0.9864     0.9864    -0.0000
 32 H      0.9489     1.0000     0.0511     1.0084     1.0084     0.0000
 33 H      0.9447     1.0000     0.0553     0.9973     0.9973     0.0000

  Mayer bond orders larger than 0.100000
B(  0-S ,  1-C ) :   1.1182 B(  0-S ,  4-C ) :   1.1397 B(  1-C ,  2-C ) :   1.6536 
B(  1-C , 32-H ) :   0.9574 B(  2-C ,  3-C ) :   1.2358 B(  2-C ,  6-C ) :   1.0113 
B(  3-C ,  4-C ) :   1.5773 B(  3-C ,  5-H ) :   0.9746 B(  4-C , 20-C ) :   1.0603 
B(  6-C ,  7-H ) :   0.9258 B(  6-C ,  8-H ) :   0.9448 B(  6-C ,  9-C ) :   1.0966 
B(  9-C , 10-H ) :   0.9497 B(  9-C , 11-H ) :   0.9417 B(  9-C , 12-C ) :   1.0828 
B( 12-C , 13-H ) :   0.9756 B( 12-C , 14-H ) :   0.9711 B( 12-C , 15-H ) :   0.9694 
B( 16-S , 17-C ) :   1.1713 B( 16-S , 20-C ) :   1.1174 B( 17-C , 18-C ) :   1.5870 
B( 17-C , 33-H ) :   0.9691 B( 18-C , 19-C ) :   1.2425 B( 18-C , 21-H ) :   0.9911 
B( 19-C , 20-C ) :   1.5971 B( 19-C , 22-C ) :   1.0496 B( 22-C , 23-H ) :   0.9326 
B( 22-C , 24-H ) :   0.9396 B( 22-C , 25-C ) :   1.0552 B( 25-C , 26-H ) :   0.9570 
B( 25-C , 27-H ) :   0.9552 B( 25-C , 28-C ) :   1.0841 B( 28-C , 29-H ) :   0.9715 
B( 28-C , 30-H ) :   0.9731 B( 28-C , 31-H ) :   0.9718 

-------
TIMINGS
-------

Total SCF time: 0 days 0 hours 0 min 20 sec 

Total time                  ....      20.290 sec
Sum of individual times     ....      19.428 sec  ( 95.8%)

Fock matrix formation       ....      17.784 sec  ( 87.6%)
  XC integration            ....       1.519 sec  (  8.5% of F)
    Basis function eval.    ....       0.148 sec  (  9.7% of XC)
    Density eval.           ....       0.107 sec  (  7.0% of XC)
    XC-Functional eval.     ....       0.122 sec  (  8.0% of XC)
    XC-Potential eval.      ....       0.123 sec  (  8.1% of XC)
Diagonalization             ....       0.123 sec  (  0.6%)
Density matrix formation    ....       0.023 sec  (  0.1%)
Population analysis         ....       0.054 sec  (  0.3%)
Initial guess               ....       0.170 sec  (  0.8%)
Orbital Transformation      ....       0.000 sec  (  0.0%)
Orbital Orthonormalization  ....       0.000 sec  (  0.0%)
DIIS solution               ....       0.153 sec  (  0.8%)
SOSCF solution              ....       0.127 sec  (  0.6%)
Grid generation             ....       0.993 sec  (  4.9%)


-------------------------------------------------------------------------------
                          DFT DISPERSION CORRECTION                            
                                                                               
                              DFTD3 V3.1  Rev 1                                
                              USING zero damping                               
-------------------------------------------------------------------------------
The omegaB97X-D3 functional is recognized. Fit by Chai et al.
Active option DFTDOPT                   ...         3   

molecular C6(AA) [au] = 14214.173801 


            DFT-D V3
 parameters
 s6 scaling factor         :     1.0000 
 rs6 scaling factor        :     1.2810 
 s8 scaling factor         :     1.0000 
 rs8 scaling factor        :     1.0940 
 Damping factor alpha6     :    14.0000 
 Damping factor alpha8     :    16.0000 
 ad hoc parameters k1-k3   :    16.0000     1.3333    -4.0000 

 Edisp/kcal,au: -9.100452083247  -0.014502491976 
 E6   /kcal   :  -4.296746541 
 E8   /kcal   :  -4.803705542 
 % E8         :  52.785350640 

-------------------------   ----------------
Dispersion correction           -0.014502492
-------------------------   ----------------


-------------------------   --------------------
FINAL SINGLE POINT ENERGY     -1339.869544220415
-------------------------   --------------------


                            ***************************************
                            *     ORCA property calculations      *
                            ***************************************

                                    ---------------------
                                    Active property flags
                                    ---------------------
   (+) Dipole Moment


------------------------------------------------------------------------------
                       ORCA ELECTRIC PROPERTIES CALCULATION
------------------------------------------------------------------------------

Dipole Moment Calculation                       ... on
Quadrupole Moment Calculation                   ... off
Polarizability Calculation                      ... off
GBWName                                         ... config_9582.gbw
Electron density file                           ... config_9582.scfp
The origin for moment calculation is the CENTER OF MASS  = (75.153534, -46.200121 -208.599677)

-------------
DIPOLE MOMENT
-------------
                                X             Y             Z
Electronic contribution:    -13.79231     -28.84088      -5.95658
Nuclear contribution   :     14.06237      29.56668       5.81113
                        -----------------------------------------
Total Dipole Moment    :      0.27006       0.72580      -0.14544
                        -----------------------------------------
Magnitude (a.u.)       :      0.78795
Magnitude (Debye)      :      2.00281



--------------------
Rotational spectrum 
--------------------
 
Rotational constants in cm-1:     0.016338     0.010342     0.006727 
Rotational constants in MHz :   489.814362   310.056292   201.659601 

 Dipole components along the rotational axes: 
x,y,z [a.u.] :    -0.166641     0.739005    -0.216727 
x,y,z [Debye]:    -0.423567     1.878401    -0.550877 

 

Timings for individual modules:

Sum of individual times         ...       21.453 sec (=   0.358 min)
GTO integral calculation        ...        0.783 sec (=   0.013 min)   3.6 %
SCF iterations                  ...       20.670 sec (=   0.345 min)  96.4 %
                             ****ORCA TERMINATED NORMALLY****
TOTAL RUN TIME: 0 days 0 hours 0 minutes 22 seconds 140 msec
