
                                 *****************
                                 * O   R   C   A *
                                 *****************

           --- An Ab Initio, DFT and Semiempirical electronic structure package ---

                  #######################################################
                  #                        -***-                        #
                  #          Department of theory and spectroscopy      #
                  #               Directorship: Frank Neese             #
                  #        Max Planck Institute fuer Kohlenforschung    #
                  #                Kaiser Wilhelm Platz 1               #
                  #                 D-45470 Muelheim/Ruhr               #
                  #                      Germany                        #
                  #                                                     #
                  #                  All rights reserved                #
                  #                        -***-                        #
                  #######################################################


                         Program Version 4.2.1 -  RELEASE  -


 With contributions from (in alphabetic order):
   Daniel Aravena         : Magnetic Suceptibility
   Michael Atanasov       : Ab Initio Ligand Field Theory (pilot matlab implementation)
   Alexander A. Auer      : GIAO ZORA, VPT2
   Ute Becker             : Parallelization
   Giovanni Bistoni       : ED, misc. LED, open-shell LED, HFLD
   Martin Brehm           : Molecular dynamics
   Dmytro Bykov           : SCF Hessian
   Vijay G. Chilkuri      : MRCI spin determinant printing, contributions to CSF-ICE
   Dipayan Datta          : RHF DLPNO-CCSD density
   Achintya Kumar Dutta   : EOM-CC, STEOM-CC
   Dmitry Ganyushin       : Spin-Orbit,Spin-Spin,Magnetic field MRCI
   Miquel Garcia          : C-PCM Hessian, Gaussian charge scheme
   Yang Guo               : DLPNO-NEVPT2, CIM, IAO-localization
   Andreas Hansen         : Spin unrestricted coupled pair/coupled cluster methods
   Benjamin Helmich-Paris : CASSCF linear response (MC-RPA)
   Lee Huntington         : MR-EOM, pCC
   Robert Izsak           : Overlap fitted RIJCOSX, COSX-SCS-MP3, EOM
   Christian Kollmar      : KDIIS, OOCD, Brueckner-CCSD(T), CCSD density
   Simone Kossmann        : Meta GGA functionals, TD-DFT gradient, OOMP2, MP2 Hessian
   Martin Krupicka        : AUTO-CI
   Lucas Lang             : DCDCAS
   Dagmar Lenk            : GEPOL surface, SMD
   Dimitrios Liakos       : Extrapolation schemes; Compound Job, initial MDCI parallelization
   Dimitrios Manganas     : Further ROCIS development; embedding schemes
   Dimitrios Pantazis     : SARC Basis sets
   Taras Petrenko         : DFT Hessian,TD-DFT gradient, ASA, ECA, R-Raman, ABS, FL, XAS/XES, NRVS
   Peter Pinski           : DLPNO-MP2, DLPNO-MP2 Gradient
   Christoph Reimann      : Effective Core Potentials
   Marius Retegan         : Local ZFS, SOC
   Christoph Riplinger    : Optimizer, TS searches, QM/MM, DLPNO-CCSD(T), (RO)-DLPNO pert. Triples
   Tobias Risthaus        : Range-separated hybrids, TD-DFT gradient, RPA, STAB
   Michael Roemelt        : Original ROCIS implementation
   Masaaki Saitow         : Open-shell DLPNO-CCSD energy and density
   Barbara Sandhoefer     : DKH picture change effects
   Avijit Sen             : IP-ROCIS
   Kantharuban Sivalingam : CASSCF convergence, NEVPT2, FIC-MRCI
   Bernardo de Souza      : ESD, SOC TD-DFT
   Georgi Stoychev        : AutoAux, RI-MP2 NMR
   Willem Van den Heuvel  : Paramagnetic NMR
   Boris Wezisla          : Elementary symmetry handling
   Frank Wennmohs         : Technical directorship


 We gratefully acknowledge several colleagues who have allowed us to
 interface, adapt or use parts of their codes:
   Stefan Grimme, W. Hujo, H. Kruse,             : VdW corrections, initial TS optimization,
                  C. Bannwarth                     DFT functionals, gCP, sTDA/sTD-DF
   Ed Valeev, F. Pavosevic, A. Kumar             : LibInt (2-el integral package), F12 methods
   Garnet Chan, S. Sharma, J. Yang, R. Olivares  : DMRG
   Ulf Ekstrom                                   : XCFun DFT Library
   Mihaly Kallay                                 : mrcc  (arbitrary order and MRCC methods)
   Andreas Klamt, Michael Diedenhofen            : otool_cosmo (COSMO solvation model)
   Jiri Pittner, Ondrej Demel                    : Mk-CCSD
   Frank Weinhold                                : gennbo (NPA and NBO analysis)
   Christopher J. Cramer and Donald G. Truhlar   : smd solvation model
   Lars Goerigk                                  : TD-DFT with DH, B97 family of functionals
   V. Asgeirsson, H. Jonsson                     : NEB implementation
   FAccTs GmbH                                   : IRC, NEB, NEB-TS, Multilevel, MM, QM/MM, CI optimization
   S Lehtola, MJT Oliveira, MAL Marques          : LibXC Library


 Your calculation uses the libint2 library for the computation of 2-el integrals
 For citations please refer to: http://libint.valeyev.net

 Your ORCA version has been built with support for libXC version: 4.2.3
 For citations please refer to: https://tddft.org/programs/libxc/

 This ORCA versions uses:
   CBLAS   interface :  Fast vector & matrix operations
   LAPACKE interface :  Fast linear algebra routines
   SCALAPACK package :  Parallel linear algebra routines


Your calculation utilizes the atom-pairwise dispersion correction
with the zero-damping scheme (D30)
Cite in your paper:
S.Grimme, J.Antony, S.Ehrlich and H.Krieg, J.Chem.Phys., 132, (2010), 154104 
   

XCFun DFT library Copyright 2009-2010 Ulf Ekstrom and contributors.
See http://admol.org/xcfun for more information. This is free soft-
ware; see the source code for copying conditions. There is ABSOLUTELY
NO WARRANTY; not even for MERCHANTABILITY or FITNESS FOR A PARTICULAR
PURPOSE. For details see the documentation. Scientific users of this 
library should cite U. Ekstrom, L. Visscher, R. Bast, A. J. Thorvald-
sen and K. Ruud; J.Chem.Theor.Comp. 2010, DOI: 10.1021/ct100117s
XCFun Version 0.99 
----- Orbital basis set information -----
Your calculation utilizes the basis: def2-SVP
   F. Weigend and R. Ahlrichs, Phys. Chem. Chem. Phys. 7, 3297 (2005).

================================================================================
                                        WARNINGS
                       Please study these warnings very carefully!
================================================================================


INFO   : the flag for use of LIBINT has been found!

================================================================================
                                       INPUT FILE
================================================================================
NAME = config_2223.inp
|  1> ! wB97X-D3 SP def2-SVP
|  2> %pal
|  3> nprocs 24
|  4> end
|  5> 
|  6> * xyz 0 1
|  7> S 	 -128.681 	 9.71723 	 -11.2514 	 
|  8> C 	 -127.302 	 9.92258 	 -10.2414 	 
|  9> C 	 -126.317 	 10.7177 	 -10.8107 	 
| 10> C 	 -126.636 	 10.9269 	 -12.208 	 
| 11> C 	 -127.797 	 10.2839 	 -12.6336 	 
| 12> H 	 -126.173 	 11.6284 	 -12.8651 	 
| 13> C 	 -125.105 	 11.4601 	 -10.1275 	 
| 14> H 	 -125.337 	 12.5356 	 -10.2198 	 
| 15> H 	 -124.176 	 11.2709 	 -10.6696 	 
| 16> C 	 -124.955 	 11.0705 	 -8.63451 	 
| 17> H 	 -125.964 	 11.3774 	 -8.18375 	 
| 18> H 	 -124.948 	 9.91046 	 -8.68679 	 
| 19> C 	 -123.758 	 11.712 	 -7.93903 	 
| 20> H 	 -123.856 	 12.7959 	 -8.04885 	 
| 21> H 	 -123.767 	 11.4265 	 -6.85354 	 
| 22> H 	 -122.8 	 11.5474 	 -8.43273 	 
| 23> S 	 -129.758 	 11.6089 	 -13.8196 	 
| 24> C 	 -130.254 	 11.2981 	 -15.4643 	 
| 25> C 	 -129.343 	 10.4018 	 -16.0193 	 
| 26> C 	 -128.254 	 9.98914 	 -15.1769 	 
| 27> C 	 -128.397 	 10.5324 	 -13.919 	 
| 28> H 	 -129.417 	 10.1026 	 -17.0846 	 
| 29> C 	 -127.172 	 9.05912 	 -15.5862 	 
| 30> H 	 -126.286 	 9.27454 	 -14.9114 	 
| 31> H 	 -126.838 	 9.29357 	 -16.6081 	 
| 32> C 	 -127.502 	 7.53942 	 -15.542 	 
| 33> H 	 -127.822 	 7.27351 	 -14.5082 	 
| 34> H 	 -126.594 	 6.89814 	 -15.6294 	 
| 35> C 	 -128.528 	 7.03421 	 -16.6019 	 
| 36> H 	 -128.716 	 5.9614 	 -16.5667 	 
| 37> H 	 -128.172 	 7.26286 	 -17.5929 	 
| 38> H 	 -129.508 	 7.53493 	 -16.5635 	 
| 39> H 	 -127.359 	 9.71877 	 -9.1695 	 
| 40> H 	 -131.135 	 11.7893 	 -15.8604 	 
| 41> *
| 42> 
| 43>                          ****END OF INPUT****
================================================================================

                       ****************************
                       * Single Point Calculation *
                       ****************************

---------------------------------
CARTESIAN COORDINATES (ANGSTROEM)
---------------------------------
  S    -128.681000    9.717230  -11.251400
  C    -127.302000    9.922580  -10.241400
  C    -126.317000   10.717700  -10.810700
  C    -126.636000   10.926900  -12.208000
  C    -127.797000   10.283900  -12.633600
  H    -126.173000   11.628400  -12.865100
  C    -125.105000   11.460100  -10.127500
  H    -125.337000   12.535600  -10.219800
  H    -124.176000   11.270900  -10.669600
  C    -124.955000   11.070500   -8.634510
  H    -125.964000   11.377400   -8.183750
  H    -124.948000    9.910460   -8.686790
  C    -123.758000   11.712000   -7.939030
  H    -123.856000   12.795900   -8.048850
  H    -123.767000   11.426500   -6.853540
  H    -122.800000   11.547400   -8.432730
  S    -129.758000   11.608900  -13.819600
  C    -130.254000   11.298100  -15.464300
  C    -129.343000   10.401800  -16.019300
  C    -128.254000    9.989140  -15.176900
  C    -128.397000   10.532400  -13.919000
  H    -129.417000   10.102600  -17.084600
  C    -127.172000    9.059120  -15.586200
  H    -126.286000    9.274540  -14.911400
  H    -126.838000    9.293570  -16.608100
  C    -127.502000    7.539420  -15.542000
  H    -127.822000    7.273510  -14.508200
  H    -126.594000    6.898140  -15.629400
  C    -128.528000    7.034210  -16.601900
  H    -128.716000    5.961400  -16.566700
  H    -128.172000    7.262860  -17.592900
  H    -129.508000    7.534930  -16.563500
  H    -127.359000    9.718770   -9.169500
  H    -131.135000   11.789300  -15.860400

----------------------------
CARTESIAN COORDINATES (A.U.)
----------------------------
  NO LB      ZA    FRAG     MASS         X           Y           Z
   0 S    16.0000    0    32.060  -243.171849   18.362903  -21.262065
   1 C     6.0000    0    12.011  -240.565916   18.750959  -19.353441
   2 C     6.0000    0    12.011  -238.704536   20.253518  -20.429262
   3 C     6.0000    0    12.011  -239.307359   20.648848  -23.069777
   4 C     6.0000    0    12.011  -241.501331   19.433755  -23.874044
   5 H     1.0000    0     1.008  -238.432415   21.974491  -24.311516
   6 C     6.0000    0    12.011  -236.414188   21.656450  -19.138201
   7 H     1.0000    0     1.008  -236.852604   23.688851  -19.312623
   8 H     1.0000    0     1.008  -234.658632   21.298914  -20.162622
   9 C     6.0000    0    12.011  -236.130729   20.920213  -16.316859
  10 H     1.0000    0     1.008  -238.037463   21.500170  -15.465046
  11 H     1.0000    0     1.008  -236.117501   18.728055  -16.415654
  12 C     6.0000    0    12.011  -233.868727   22.132472  -15.002592
  13 H     1.0000    0     1.008  -234.053920   24.180747  -15.210122
  14 H     1.0000    0     1.008  -233.885734   21.592956  -12.951314
  15 H     1.0000    0     1.008  -232.058369   21.821424  -15.935550
  16 S    16.0000    0    32.060  -245.207084   21.937642  -26.115259
  17 C     6.0000    0    12.011  -246.144388   21.350315  -29.223292
  18 C     6.0000    0    12.011  -244.422847   19.656553  -30.272090
  19 C     6.0000    0    12.011  -242.364936   18.876739  -28.680185
  20 C     6.0000    0    12.011  -242.635166   19.903352  -26.303098
  21 H     1.0000    0     1.008  -244.562687   19.091147  -32.285215
  22 C     6.0000    0    12.011  -240.320252   17.119256  -29.453649
  23 H     1.0000    0     1.008  -238.645955   17.526341  -28.178462
  24 H     1.0000    0     1.008  -239.689083   17.562302  -31.384761
  25 C     6.0000    0    12.011  -240.943862   14.247439  -29.370124
  26 H     1.0000    0     1.008  -241.548574   13.744942  -27.416525
  27 H     1.0000    0     1.008  -239.227990   13.035595  -29.535286
  28 C     6.0000    0    12.011  -242.882721   13.292730  -31.373044
  29 H     1.0000    0     1.008  -243.237989   11.265413  -31.306526
  30 H     1.0000    0     1.008  -242.209978   13.724816  -33.245763
  31 H     1.0000    0     1.008  -244.734652   14.238954  -31.300479
  32 H     1.0000    0     1.008  -240.673631   18.365814  -17.327844
  33 H     1.0000    0     1.008  -247.809237   22.278548  -29.971812

--------------------------------
INTERNAL COORDINATES (ANGSTROEM)
--------------------------------
 S      0   0   0     0.000000000000     0.00000000     0.00000000
 C      1   0   0     1.721600889434     0.00000000     0.00000000
 C      2   1   0     1.387999749424   113.33685784     0.00000000
 C      3   2   1     1.448438100162   108.79138460   348.81437288
 C      4   3   2     1.393737909365   114.29353881   358.91487653
 H      4   3   2     1.066888775834   126.40917475   168.29389374
 C      3   2   1     1.576979391115   129.59822464   162.14790569
 H      7   3   2     1.104103047727   105.12150793   248.14483887
 H      7   3   2     1.092112654446   110.92617840   131.86924851
 C      7   3   2     1.550260397514   111.91813205     7.79244701
 H     10   7   3     1.146932076280   103.06910301   300.91620922
 H     10   7   3     1.161238562915   102.02150315    51.65693192
 C     10   7   3     1.525786249905   114.15614347   177.37782065
 H     13  10   7     1.093848089270   107.49160452    56.73149168
 H     13  10   7     1.122443669010   109.12191595   176.46079076
 H     13  10   7     1.090227889021   114.80140681   305.82549808
 S      5   4   3     2.647214007216   121.53164865   125.62237641
 C     17   5   4     1.745752196046   122.91838347   116.77220299
 C     18  17   5     1.393305311122   107.70007216   352.62991654
 C     19  18  17     1.437305477482   116.52737006   358.60423752
 C     20  19  18     1.377640315031   110.07748295     3.71898702
 H     19  18  17     1.108990861099   120.83500999   183.85214026
 C     20  19  18     1.484313878666   124.79078702   180.90711341
 H     23  20  19     1.134353038697   106.63862598   156.67347883
 H     23  20  19     1.100364672506   110.11171960    42.15466502
 C     23  20  19     1.555744750915   116.71741029   279.42584513
 H     26  23  20     1.114383492385   108.68436439   302.90327488
 H     26  23  20     1.115052823143   112.75745326   193.28901493
 C     26  23  20     1.559263016332   115.89736431    69.18262227
 H     29  26  23     1.089726725422   114.23862703   178.20678852
 H     29  26  23     1.077542492202   109.81633273    57.75400869
 H     29  26  23     1.101178949308   114.49161515   302.13749260
 H      2   1   3     1.092591930274   120.76480296   161.65966590
 H     18  17   5     1.083666761509   119.64636339   172.96287877

---------------------------
INTERNAL COORDINATES (A.U.)
---------------------------
 S      0   0   0     0.000000000000     0.00000000     0.00000000
 C      1   0   0     3.253354192946     0.00000000     0.00000000
 C      2   1   0     2.622939400362   113.33685784     0.00000000
 C      3   2   1     2.737151331243   108.79138460   348.81437288
 C      4   3   2     2.633782951163   114.29353881   358.91487653
 H      4   3   2     2.016127601680   126.40917475   168.29389374
 C      3   2   1     2.980059168044   129.59822464   162.14790569
 H      7   3   2     2.086452383832   105.12150793   248.14483887
 H      7   3   2     2.063793824292   110.92617840   131.86924851
 C      7   3   2     2.929567587565   111.91813205     7.79244701
 H     10   7   3     2.167387518379   103.06910301   300.91620922
 H     10   7   3     2.194422860057   102.02150315    51.65693192
 C     10   7   3     2.883318151224   114.15614347   177.37782065
 H     13  10   7     2.067073320834   107.49160452    56.73149168
 H     13  10   7     2.121111135182   109.12191595   176.46079076
 H     13  10   7     2.060232133813   114.80140681   305.82549808
 S      5   4   3     5.002509491518   121.53164865   125.62237641
 C     17   5   4     3.298993548219   122.91838347   116.77220299
 C     18  17   5     2.632965458958   107.70007216   352.62991654
 C     19  18  17     2.716113723226   116.52737006   358.60423752
 C     20  19  18     2.603362906458   110.07748295     3.71898702
 H     19  18  17     2.095689012498   120.83500999   183.85214026
 C     20  19  18     2.804946727457   124.79078702   180.90711341
 H     23  20  19     2.143616582318   106.63862598   156.67347883
 H     23  20  19     2.079387878479   110.11171960    42.15466502
 C     23  20  19     2.939931513515   116.71741029   279.42584513
 H     26  23  20     2.105879608770   108.68436439   302.90327488
 H     26  23  20     2.107144460597   112.75745326   193.28901493
 C     26  23  20     2.946580071619   115.89736431    69.18262227
 H     29  26  23     2.059285071863   114.23862703   178.20678852
 H     29  26  23     2.036260207924   109.81633273    57.75400869
 H     29  26  23     2.080926638632   114.49161515   302.13749260
 H      2   1   3     2.064699524350   120.76480296   161.65966590
 H     18  17   5     2.047833399686   119.64636339   172.96287877

---------------------
BASIS SET INFORMATION
---------------------
There are 3 groups of distinct atoms

 Group   1 Type S   : 10s7p1d contracted to 4s3p1d pattern {5311/511/1}
 Group   2 Type C   : 7s4p1d contracted to 3s2p1d pattern {511/31/1}
 Group   3 Type H   : 4s1p contracted to 2s1p pattern {31/1}

Atom   0S    basis set group =>   1
Atom   1C    basis set group =>   2
Atom   2C    basis set group =>   2
Atom   3C    basis set group =>   2
Atom   4C    basis set group =>   2
Atom   5H    basis set group =>   3
Atom   6C    basis set group =>   2
Atom   7H    basis set group =>   3
Atom   8H    basis set group =>   3
Atom   9C    basis set group =>   2
Atom  10H    basis set group =>   3
Atom  11H    basis set group =>   3
Atom  12C    basis set group =>   2
Atom  13H    basis set group =>   3
Atom  14H    basis set group =>   3
Atom  15H    basis set group =>   3
Atom  16S    basis set group =>   1
Atom  17C    basis set group =>   2
Atom  18C    basis set group =>   2
Atom  19C    basis set group =>   2
Atom  20C    basis set group =>   2
Atom  21H    basis set group =>   3
Atom  22C    basis set group =>   2
Atom  23H    basis set group =>   3
Atom  24H    basis set group =>   3
Atom  25C    basis set group =>   2
Atom  26H    basis set group =>   3
Atom  27H    basis set group =>   3
Atom  28C    basis set group =>   2
Atom  29H    basis set group =>   3
Atom  30H    basis set group =>   3
Atom  31H    basis set group =>   3
Atom  32H    basis set group =>   3
Atom  33H    basis set group =>   3


           ************************************************************
           *        Program running with 24 parallel MPI-processes    *
           *              working on a common directory               *
           ************************************************************
------------------------------------------------------------------------------
                           ORCA GTO INTEGRAL CALCULATION
------------------------------------------------------------------------------

                         BASIS SET STATISTICS AND STARTUP INFO

 # of primitive gaussian shells          ...  294
 # of primitive gaussian functions       ...  534
 # of contracted shells                  ...  154
 # of contracted basis functions         ...  322
 Highest angular momentum                ...    2
 Maximum contraction depth               ...    5
 Integral package used                   ... LIBINT
 Integral threshhold            Thresh   ...  1.000e-10
 Primitive cut-off              TCut     ...  1.000e-11


------------------------------ INTEGRAL EVALUATION ----------------------------


 * One electron integrals 
 Pre-screening matrix                    ... done
 Shell pair data                         ... done (   0.003 sec)



           ************************************************************
           *        Program running with 24 parallel MPI-processes    *
           *              working on a common directory               *
           ************************************************************
-------------------------------------------------------------------------------
                                 ORCA SCF
-------------------------------------------------------------------------------

------------
SCF SETTINGS
------------
Hamiltonian:
 Density Functional     Method          .... DFT(GTOs)
 Exchange Functional    Exchange        .... WB97X-D3
 Correlation Functional Correlation     .... WB97X-D3
 Gradients option       PostSCFGGA      .... off
 Hybrid DFT is turned on
   Fraction HF Exchange ScalHFX         ....  0.195728
   Scaling of DF-GGA-X  ScalDFX         ....  0.000000
   Scaling of DF-GGA-C  ScalDFC         ....  1.000000
   Scaling of DF-LDA-C  ScalLDAC        ....  1.000000
   Perturbative correction              ....  0.000000
   Density functional embedding theory  .... OFF
 Long-range corrected/Screened/Range-Separated Hybrid DFT is turned on
   Amount of maximum screened exact exchange              ....  0.804272
   Range separation parameter mu (erf(mu*r12)/r12)        ....  0.250000


General Settings:
 Integral files         IntName         .... config_2223
 Hartree-Fock type      HFTyp           .... RHF
 Total Charge           Charge          ....    0
 Multiplicity           Mult            ....    1
 Number of Electrons    NEL             ....  134
 Basis Dimension        Dim             ....  322
 Nuclear Repulsion      ENuc            ....   1269.7927828272 Eh

Convergence Acceleration:
 DIIS                   CNVDIIS         .... on
   Start iteration      DIISMaxIt       ....    12
   Startup error        DIISStart       ....  0.200000
   # of expansion vecs  DIISMaxEq       ....     5
   Bias factor          DIISBfac        ....   1.050
   Max. coefficient     DIISMaxC        ....  10.000
 Newton-Raphson         CNVNR           .... off
 SOSCF                  CNVSOSCF        .... on
   Start iteration      SOSCFMaxIt      ....   150
   Startup grad/error   SOSCFStart      ....  0.003300
 Level Shifting         CNVShift        .... on
   Level shift para.    LevelShift      ....    0.2500
   Turn off err/grad.   ShiftErr        ....    0.0010
 Zerner damping         CNVZerner       .... off
 Static damping         CNVDamp         .... on
   Fraction old density DampFac         ....    0.7000
   Max. Damping (<1)    DampMax         ....    0.9800
   Min. Damping (>=0)   DampMin         ....    0.0000
   Turn off err/grad.   DampErr         ....    0.1000
 Fernandez-Rico         CNVRico         .... off

SCF Procedure:
 Maximum # iterations   MaxIter         ....   125
 SCF integral mode      SCFMode         .... Direct
   Integral package                     .... LIBINT
 Reset frequency        DirectResetFreq ....    20
 Integral Threshold     Thresh          ....  1.000e-10 Eh
 Primitive CutOff       TCut            ....  1.000e-11 Eh

Convergence Tolerance:
 Convergence Check Mode ConvCheckMode   .... Total+1el-Energy
 Convergence forced     ConvForced      .... 0
 Energy Change          TolE            ....  1.000e-06 Eh
 1-El. energy change                    ....  1.000e-03 Eh
 Orbital Gradient       TolG            ....  5.000e-05
 Orbital Rotation angle TolX            ....  5.000e-05
 DIIS Error             TolErr          ....  1.000e-06


Diagonalization of the overlap matrix:
Smallest eigenvalue                        ... 5.872e-04
Time for diagonalization                   ...    0.015 sec
Threshold for overlap eigenvalues          ... 1.000e-08
Number of eigenvalues below threshold      ... 0
Time for construction of square roots      ...    0.029 sec
Total time needed                          ...    0.044 sec

-------------------
DFT GRID GENERATION
-------------------

General Integration Accuracy     IntAcc      ...  4.340
Radial Grid Type                 RadialGrid  ... Gauss-Chebyshev
Angular Grid (max. acc.)         AngularGrid ... Lebedev-110
Angular grid pruning method      GridPruning ... 3 (G Style)
Weight generation scheme         WeightScheme... Becke
Basis function cutoff            BFCut       ...    1.0000e-10
Integration weight cutoff        WCut        ...    1.0000e-14
Grids for H and He will be reduced by one unit

# of grid points (after initial pruning)     ...  41088 (   0.0 sec)
# of grid points (after weights+screening)   ...  37107 (   0.0 sec)
nearest neighbour list constructed           ...    0.0 sec
Grid point re-assignment to atoms done       ...    0.0 sec
Grid point division into batches done        ...    0.0 sec
Reduced shell lists constructed in    0.1 sec

Total number of grid points                  ...    37107
Total number of batches                      ...      597
Average number of points per batch           ...       62
Average number of grid points per atom       ...     1091
Average number of shells per batch           ...    74.31 (48.25%)
Average number of basis functions per batch  ...   146.38 (45.46%)
Average number of large shells per batch     ...    48.69 (65.53%)
Average number of large basis fcns per batch ...   100.15 (68.42%)
Maximum spatial batch extension              ...  15.58, 16.27, 12.70 au
Average spatial batch extension              ...   0.16,  0.16,  0.15 au

Time for grid setup =    0.150 sec

------------------------------
INITIAL GUESS: MODEL POTENTIAL
------------------------------
Loading Hartree-Fock densities                     ... done
Calculating cut-offs                               ... done
Setting up the integral package                    ... done
Initializing the effective Hamiltonian             ... done
Starting the Coulomb interaction                   ... done (   0.0 sec)
Reading the grid                                   ... done
Mapping shells                                     ... done
Starting the XC term evaluation                    ... done (   0.0 sec)
  promolecular density results
     # of electrons  =    133.996612331
     EX              =   -126.665945333
     EC              =     -4.612116824
     EX+EC           =   -131.278062156
Transforming the Hamiltonian                       ... done (   0.0 sec)
Diagonalizing the Hamiltonian                      ... done (   0.0 sec)
Back transforming the eigenvectors                 ... done (   0.0 sec)
Now organizing SCF variables                       ... done
                      ------------------
                      INITIAL GUESS DONE (   0.3 sec)
                      ------------------
--------------
SCF ITERATIONS
--------------
ITER       Energy         Delta-E        Max-DP      RMS-DP      [F,P]     Damp
               ***  Starting incremental Fock matrix formation  ***
  0  -1339.4568944762   0.000000000000 0.06444027  0.00152681  0.1537876 0.7000
  1  -1339.6318446224  -0.174950146178 0.04325558  0.00111671  0.0927836 0.7000
                               ***Turning on DIIS***
  2  -1339.7172532378  -0.085408615440 0.09154205  0.00212414  0.0480334 0.0000
  3  -1339.8464094052  -0.129156167340 0.04150807  0.00094376  0.0378176 0.0000
  4  -1339.8737964750  -0.027387069859 0.00718016  0.00020088  0.0073982 0.0000
                      *** Initiating the SOSCF procedure ***
                           *** Shutting down DIIS ***
                      *** Re-Reading the Fockian *** 
                      *** Removing any level shift *** 
ITER      Energy       Delta-E        Grad      Rot      Max-DP    RMS-DP
  5  -1339.87467684  -0.0008803699  0.001790  0.001790  0.003776  0.000105
               *** Restarting incremental Fock matrix formation ***
  6  -1339.87485871  -0.0001818687  0.001566  0.004350  0.002806  0.000065
  7  -1339.87492172  -0.0000630061  0.000835  0.005287  0.003780  0.000065
  8  -1339.87494008  -0.0000183595  0.000246  0.000531  0.000652  0.000018
  9  -1339.87494352  -0.0000034407  0.000087  0.000279  0.000217  0.000006
                 **** Energy Check signals convergence ****
              ***Rediagonalizing the Fockian in SOSCF/NRSCF***

               *****************************************************
               *                     SUCCESS                       *
               *           SCF CONVERGED AFTER  10 CYCLES          *
               *****************************************************

Setting up the final grid:

General Integration Accuracy     IntAcc      ...  4.670
Radial Grid Type                 RadialGrid  ... Gauss-Chebyshev
Angular Grid (max. acc.)         AngularGrid ... Lebedev-302
Angular grid pruning method      GridPruning ... 3 (G Style)
Weight generation scheme         WeightScheme... Becke
Basis function cutoff            BFCut       ...    1.0000e-10
Integration weight cutoff        WCut        ...    1.0000e-14
Grids for H and He will be reduced by one unit

# of grid points (after initial pruning)     ... 161752 (   0.0 sec)
# of grid points (after weights+screening)   ... 143410 (   0.1 sec)
nearest neighbour list constructed           ...    0.0 sec
Grid point re-assignment to atoms done       ...    0.0 sec
Grid point division into batches done        ...    0.5 sec
Reduced shell lists constructed in    0.5 sec

Total number of grid points                  ...   143410
Total number of batches                      ...     2259
Average number of points per batch           ...       63
Average number of grid points per atom       ...     4218
Average number of shells per batch           ...    68.69 (44.60%)
Average number of basis functions per batch  ...   134.50 (41.77%)
Average number of large shells per batch     ...    43.24 (62.95%)
Average number of large basis fcns per batch ...    88.32 (65.67%)
Maximum spatial batch extension              ...  13.08, 14.67, 11.70 au
Average spatial batch extension              ...   0.10,  0.10,  0.10 au

Final grid set up in    0.8 sec
Final integration                            ... done (   0.2 sec)
Change in XC energy                          ...     0.006175866
Integrated number of electrons               ...   133.999880114
Previous integrated no of electrons          ...   134.005562215

----------------
TOTAL SCF ENERGY
----------------

Total Energy       :        -1339.86876785 Eh          -36459.68275 eV

Components:
Nuclear Repulsion  :         1269.79278283 Eh           34552.81825 eV
Electronic Energy  :        -2609.66155067 Eh          -71012.50100 eV
One Electron Energy:        -4356.40006174 Eh         -118543.67232 eV
Two Electron Energy:         1746.73851107 Eh           47531.17132 eV

Virial components:
Potential Energy   :        -2670.98044058 Eh          -72681.07282 eV
Kinetic Energy     :         1331.11167273 Eh           36221.39007 eV
Virial Ratio       :            2.00657878


DFT components:
N(Alpha)           :       66.999940056859 electrons
N(Beta)            :       66.999940056859 electrons
N(Total)           :      133.999880113717 electrons
E(XC)              :      -94.170939783952 Eh       
DFET-embed. en.    :        0.000000000000 Eh       

---------------
SCF CONVERGENCE
---------------

  Last Energy change         ...   -1.9193e-07  Tolerance :   1.0000e-06
  Last MAX-Density change    ...    9.6386e-05  Tolerance :   1.0000e-05
  Last RMS-Density change    ...    2.7587e-06  Tolerance :   1.0000e-06
  Last Orbital Gradient      ...    6.2784e-05  Tolerance :   5.0000e-05
  Last Orbital Rotation      ...    1.4392e-04  Tolerance :   5.0000e-05

             **** THE GBW FILE WAS UPDATED (config_2223.gbw) ****
             **** DENSITY FILE WAS UPDATED (config_2223.scfp) ****
             **** ENERGY FILE WAS UPDATED (config_2223.en.tmp) ****
             **** THE GBW FILE WAS UPDATED (config_2223.gbw) ****
             **** DENSITY FILE WAS UPDATED (config_2223.scfp) ****
----------------
ORBITAL ENERGIES
----------------

  NO   OCC          E(Eh)            E(eV) 
   0   2.0000     -88.967631     -2420.9323 
   1   2.0000     -88.959608     -2420.7140 
   2   2.0000     -10.324336      -280.9395 
   3   2.0000     -10.320536      -280.8361 
   4   2.0000     -10.318857      -280.7904 
   5   2.0000     -10.314242      -280.6648 
   6   2.0000     -10.307780      -280.4890 
   7   2.0000     -10.301927      -280.3297 
   8   2.0000     -10.301710      -280.3238 
   9   2.0000     -10.301210      -280.3102 
  10   2.0000     -10.298110      -280.2258 
  11   2.0000     -10.295618      -280.1580 
  12   2.0000     -10.293291      -280.0947 
  13   2.0000     -10.291362      -280.0422 
  14   2.0000     -10.287285      -279.9313 
  15   2.0000     -10.275877      -279.6208 
  16   2.0000      -8.082963      -219.9486 
  17   2.0000      -8.075135      -219.7356 
  18   2.0000      -6.041393      -164.3947 
  19   2.0000      -6.037634      -164.2924 
  20   2.0000      -6.033584      -164.1822 
  21   2.0000      -6.033500      -164.1799 
  22   2.0000      -6.029333      -164.0665 
  23   2.0000      -6.026105      -163.9787 
  24   2.0000      -1.011009       -27.5110 
  25   2.0000      -0.984773       -26.7970 
  26   2.0000      -0.907569       -24.6962 
  27   2.0000      -0.902584       -24.5606 
  28   2.0000      -0.869810       -23.6687 
  29   2.0000      -0.849145       -23.1064 
  30   2.0000      -0.843078       -22.9413 
  31   2.0000      -0.808732       -22.0067 
  32   2.0000      -0.781921       -21.2772 
  33   2.0000      -0.772032       -21.0081 
  34   2.0000      -0.707750       -19.2588 
  35   2.0000      -0.697857       -18.9896 
  36   2.0000      -0.683098       -18.5880 
  37   2.0000      -0.663689       -18.0599 
  38   2.0000      -0.644744       -17.5444 
  39   2.0000      -0.606119       -16.4933 
  40   2.0000      -0.592240       -16.1157 
  41   2.0000      -0.567104       -15.4317 
  42   2.0000      -0.561622       -15.2825 
  43   2.0000      -0.547019       -14.8851 
  44   2.0000      -0.539683       -14.6855 
  45   2.0000      -0.525660       -14.3039 
  46   2.0000      -0.512684       -13.9508 
  47   2.0000      -0.510575       -13.8935 
  48   2.0000      -0.500842       -13.6286 
  49   2.0000      -0.493601       -13.4316 
  50   2.0000      -0.487750       -13.2723 
  51   2.0000      -0.482712       -13.1353 
  52   2.0000      -0.474956       -12.9242 
  53   2.0000      -0.471249       -12.8234 
  54   2.0000      -0.456945       -12.4341 
  55   2.0000      -0.449222       -12.2240 
  56   2.0000      -0.439409       -11.9569 
  57   2.0000      -0.432961       -11.7815 
  58   2.0000      -0.427510       -11.6331 
  59   2.0000      -0.424228       -11.5438 
  60   2.0000      -0.419809       -11.4236 
  61   2.0000      -0.418330       -11.3833 
  62   2.0000      -0.411424       -11.1954 
  63   2.0000      -0.336766        -9.1639 
  64   2.0000      -0.331136        -9.0107 
  65   2.0000      -0.322552        -8.7771 
  66   2.0000      -0.300948        -8.1892 
  67   0.0000       0.037511         1.0207 
  68   0.0000       0.056609         1.5404 
  69   0.0000       0.110854         3.0165 
  70   0.0000       0.118973         3.2374 
  71   0.0000       0.137578         3.7437 
  72   0.0000       0.140738         3.8297 
  73   0.0000       0.148061         4.0290 
  74   0.0000       0.154081         4.1928 
  75   0.0000       0.167352         4.5539 
  76   0.0000       0.170157         4.6302 
  77   0.0000       0.179502         4.8845 
  78   0.0000       0.188637         5.1331 
  79   0.0000       0.195786         5.3276 
  80   0.0000       0.197320         5.3693 
  81   0.0000       0.204073         5.5531 
  82   0.0000       0.214769         5.8442 
  83   0.0000       0.218598         5.9484 
  84   0.0000       0.219799         5.9810 
  85   0.0000       0.222313         6.0495 
  86   0.0000       0.235527         6.4090 
  87   0.0000       0.242821         6.6075 
  88   0.0000       0.243624         6.6294 
  89   0.0000       0.247027         6.7220 
  90   0.0000       0.251347         6.8395 
  91   0.0000       0.256929         6.9914 
  92   0.0000       0.261813         7.1243 
  93   0.0000       0.282610         7.6902 
  94   0.0000       0.293745         7.9932 
  95   0.0000       0.302811         8.2399 
  96   0.0000       0.323164         8.7937 
  97   0.0000       0.329921         8.9776 
  98   0.0000       0.361306         9.8316 
  99   0.0000       0.364000         9.9049 
 100   0.0000       0.376091        10.2340 
 101   0.0000       0.390882        10.6364 
 102   0.0000       0.411838        11.2067 
 103   0.0000       0.416121        11.3232 
 104   0.0000       0.438953        11.9445 
 105   0.0000       0.449510        12.2318 
 106   0.0000       0.458266        12.4700 
 107   0.0000       0.468166        12.7395 
 108   0.0000       0.484236        13.1767 
 109   0.0000       0.495327        13.4785 
 110   0.0000       0.496412        13.5081 
 111   0.0000       0.501385        13.6434 
 112   0.0000       0.517313        14.0768 
 113   0.0000       0.528946        14.3934 
 114   0.0000       0.536291        14.5932 
 115   0.0000       0.539991        14.6939 
 116   0.0000       0.545222        14.8363 
 117   0.0000       0.553559        15.0631 
 118   0.0000       0.559189        15.2163 
 119   0.0000       0.568471        15.4689 
 120   0.0000       0.587365        15.9830 
 121   0.0000       0.598100        16.2751 
 122   0.0000       0.602013        16.3816 
 123   0.0000       0.609038        16.5728 
 124   0.0000       0.614887        16.7319 
 125   0.0000       0.629614        17.1327 
 126   0.0000       0.637699        17.3527 
 127   0.0000       0.638832        17.3835 
 128   0.0000       0.651075        17.7166 
 129   0.0000       0.664613        18.0851 
 130   0.0000       0.671146        18.2628 
 131   0.0000       0.678165        18.4538 
 132   0.0000       0.686982        18.6937 
 133   0.0000       0.696172        18.9438 
 134   0.0000       0.702041        19.1035 
 135   0.0000       0.708826        19.2881 
 136   0.0000       0.715767        19.4770 
 137   0.0000       0.720894        19.6165 
 138   0.0000       0.731751        19.9120 
 139   0.0000       0.733834        19.9686 
 140   0.0000       0.743473        20.2309 
 141   0.0000       0.745622        20.2894 
 142   0.0000       0.752057        20.4645 
 143   0.0000       0.754072        20.5193 
 144   0.0000       0.757121        20.6023 
 145   0.0000       0.762020        20.7356 
 146   0.0000       0.763945        20.7880 
 147   0.0000       0.766897        20.8683 
 148   0.0000       0.771642        20.9974 
 149   0.0000       0.777631        21.1604 
 150   0.0000       0.780268        21.2322 
 151   0.0000       0.783256        21.3135 
 152   0.0000       0.785411        21.3721 
 153   0.0000       0.790547        21.5119 
 154   0.0000       0.793026        21.5793 
 155   0.0000       0.801759        21.8170 
 156   0.0000       0.803935        21.8762 
 157   0.0000       0.810452        22.0535 
 158   0.0000       0.816391        22.2151 
 159   0.0000       0.819234        22.2925 
 160   0.0000       0.828353        22.5406 
 161   0.0000       0.829829        22.5808 
 162   0.0000       0.832772        22.6609 
 163   0.0000       0.842577        22.9277 
 164   0.0000       0.846690        23.0396 
 165   0.0000       0.853929        23.2366 
 166   0.0000       0.863859        23.5068 
 167   0.0000       0.868504        23.6332 
 168   0.0000       0.878610        23.9082 
 169   0.0000       0.886456        24.1217 
 170   0.0000       0.895315        24.3628 
 171   0.0000       0.915034        24.8993 
 172   0.0000       0.930513        25.3205 
 173   0.0000       0.945151        25.7189 
 174   0.0000       0.959489        26.1090 
 175   0.0000       0.977398        26.5964 
 176   0.0000       0.992116        26.9968 
 177   0.0000       1.003969        27.3194 
 178   0.0000       1.023729        27.8571 
 179   0.0000       1.031357        28.0647 
 180   0.0000       1.050095        28.5745 
 181   0.0000       1.076698        29.2984 
 182   0.0000       1.082109        29.4457 
 183   0.0000       1.104633        30.0586 
 184   0.0000       1.116587        30.3839 
 185   0.0000       1.133393        30.8412 
 186   0.0000       1.144931        31.1552 
 187   0.0000       1.162505        31.6334 
 188   0.0000       1.184279        32.2259 
 189   0.0000       1.193656        32.4810 
 190   0.0000       1.206980        32.8436 
 191   0.0000       1.233091        33.5541 
 192   0.0000       1.268200        34.5095 
 193   0.0000       1.274057        34.6689 
 194   0.0000       1.281897        34.8822 
 195   0.0000       1.291656        35.1478 
 196   0.0000       1.301159        35.4063 
 197   0.0000       1.314738        35.7758 
 198   0.0000       1.343207        36.5505 
 199   0.0000       1.371403        37.3178 
 200   0.0000       1.394319        37.9414 
 201   0.0000       1.403800        38.1993 
 202   0.0000       1.414262        38.4840 
 203   0.0000       1.447359        39.3847 
 204   0.0000       1.453260        39.5452 
 205   0.0000       1.471926        40.0531 
 206   0.0000       1.479596        40.2619 
 207   0.0000       1.483708        40.3738 
 208   0.0000       1.528540        41.5937 
 209   0.0000       1.560873        42.4735 
 210   0.0000       1.580237        43.0004 
 211   0.0000       1.590529        43.2805 
 212   0.0000       1.624688        44.2100 
 213   0.0000       1.641932        44.6792 
 214   0.0000       1.654918        45.0326 
 215   0.0000       1.671782        45.4915 
 216   0.0000       1.708540        46.4917 
 217   0.0000       1.713577        46.6288 
 218   0.0000       1.745391        47.4945 
 219   0.0000       1.778761        48.4025 
 220   0.0000       1.783533        48.5324 
 221   0.0000       1.793554        48.8051 
 222   0.0000       1.798199        48.9315 
 223   0.0000       1.806980        49.1704 
 224   0.0000       1.816345        49.4253 
 225   0.0000       1.819623        49.5145 
 226   0.0000       1.835048        49.9342 
 227   0.0000       1.839247        50.0485 
 228   0.0000       1.845804        50.2269 
 229   0.0000       1.853566        50.4381 
 230   0.0000       1.856625        50.5213 
 231   0.0000       1.868137        50.8346 
 232   0.0000       1.885583        51.3093 
 233   0.0000       1.888217        51.3810 
 234   0.0000       1.896329        51.6017 
 235   0.0000       1.900410        51.7128 
 236   0.0000       1.903604        51.7997 
 237   0.0000       1.915988        52.1367 
 238   0.0000       1.924787        52.3761 
 239   0.0000       1.926169        52.4137 
 240   0.0000       1.929281        52.4984 
 241   0.0000       1.943418        52.8831 
 242   0.0000       1.953441        53.1558 
 243   0.0000       1.965367        53.4804 
 244   0.0000       1.966866        53.5211 
 245   0.0000       1.982818        53.9552 
 246   0.0000       2.000367        54.4328 
 247   0.0000       2.003687        54.5231 
 248   0.0000       2.010944        54.7206 
 249   0.0000       2.028729        55.2045 
 250   0.0000       2.030226        55.2453 
 251   0.0000       2.049583        55.7720 
 252   0.0000       2.053064        55.8667 
 253   0.0000       2.060052        56.0569 
 254   0.0000       2.064001        56.1643 
 255   0.0000       2.071826        56.3772 
 256   0.0000       2.086441        56.7749 
 257   0.0000       2.091331        56.9080 
 258   0.0000       2.106685        57.3258 
 259   0.0000       2.120263        57.6953 
 260   0.0000       2.142191        58.2920 
 261   0.0000       2.153492        58.5995 
 262   0.0000       2.186929        59.5094 
 263   0.0000       2.195102        59.7318 
 264   0.0000       2.217217        60.3335 
 265   0.0000       2.228704        60.6461 
 266   0.0000       2.235695        60.8363 
 267   0.0000       2.247252        61.1508 
 268   0.0000       2.278463        62.0001 
 269   0.0000       2.289784        62.3082 
 270   0.0000       2.324580        63.2550 
 271   0.0000       2.352526        64.0155 
 272   0.0000       2.371260        64.5253 
 273   0.0000       2.383333        64.8538 
 274   0.0000       2.388215        64.9866 
 275   0.0000       2.410771        65.6004 
 276   0.0000       2.419118        65.8276 
 277   0.0000       2.435526        66.2740 
 278   0.0000       2.449927        66.6659 
 279   0.0000       2.465738        67.0961 
 280   0.0000       2.475715        67.3676 
 281   0.0000       2.498604        67.9905 
 282   0.0000       2.515378        68.4469 
 283   0.0000       2.517620        68.5079 
 284   0.0000       2.537490        69.0486 
 285   0.0000       2.544631        69.2429 
 286   0.0000       2.556385        69.5628 
 287   0.0000       2.560876        69.6850 
 288   0.0000       2.594352        70.5959 
 289   0.0000       2.604308        70.8668 
 290   0.0000       2.623853        71.3987 
 291   0.0000       2.633579        71.6633 
 292   0.0000       2.650720        72.1297 
 293   0.0000       2.654019        72.2195 
 294   0.0000       2.680888        72.9507 
 295   0.0000       2.701832        73.5206 
 296   0.0000       2.717917        73.9583 
 297   0.0000       2.757893        75.0461 
 298   0.0000       2.767166        75.2984 
 299   0.0000       2.799004        76.1648 
 300   0.0000       2.820208        76.7418 
 301   0.0000       2.859656        77.8152 
 302   0.0000       2.873020        78.1788 
 303   0.0000       2.889365        78.6236 
 304   0.0000       2.927183        79.6527 
 305   0.0000       2.948042        80.2203 
 306   0.0000       2.967469        80.7489 
 307   0.0000       2.992354        81.4261 
 308   0.0000       3.002131        81.6921 
 309   0.0000       3.026197        82.3470 
 310   0.0000       3.037096        82.6436 
 311   0.0000       3.061691        83.3129 
 312   0.0000       3.084413        83.9311 
 313   0.0000       3.119227        84.8785 
 314   0.0000       3.125432        85.0473 
 315   0.0000       3.139678        85.4350 
 316   0.0000       3.143962        85.5516 
 317   0.0000       3.160300        85.9961 
 318   0.0000       3.168697        86.2246 
 319   0.0000       3.235841        88.0517 
 320   0.0000       3.356170        91.3260 
 321   0.0000       3.422617        93.1341 

                    ********************************
                    * MULLIKEN POPULATION ANALYSIS *
                    ********************************

-----------------------
MULLIKEN ATOMIC CHARGES
-----------------------
   0 S :    0.130842
   1 C :   -0.142661
   2 C :   -0.081497
   3 C :    0.026273
   4 C :   -0.142070
   5 H :    0.013190
   6 C :    0.048107
   7 H :    0.043843
   8 H :    0.038554
   9 C :   -0.166243
  10 H :    0.045882
  11 H :    0.051451
  12 C :   -0.011582
  13 H :    0.025061
  14 H :    0.055049
  15 H :    0.032624
  16 S :    0.093459
  17 C :   -0.100353
  18 C :   -0.047539
  19 C :   -0.006289
  20 C :   -0.202686
  21 H :    0.029298
  22 C :    0.053092
  23 H :    0.037792
  24 H :    0.025004
  25 C :   -0.069341
  26 H :    0.030352
  27 H :    0.033428
  28 C :   -0.058067
  29 H :    0.039002
  30 H :    0.015119
  31 H :    0.037715
  32 H :    0.057115
  33 H :    0.066074
Sum of atomic charges:    0.0000000

--------------------------------
MULLIKEN REDUCED ORBITAL CHARGES
--------------------------------
  0 S s       :     5.841114  s :     5.841114
      pz      :     2.973945  p :     9.914187
      px      :     3.293926
      py      :     3.646317
      dz2     :     0.018350  d :     0.113856
      dxz     :     0.042288
      dyz     :     0.024978
      dx2y2   :     0.015566
      dxy     :     0.012674
  1 C s       :     3.185952  s :     3.185952
      pz      :     0.908253  p :     2.921599
      px      :     0.904144
      py      :     1.109201
      dz2     :     0.007650  d :     0.035111
      dxz     :     0.009340
      dyz     :     0.004250
      dx2y2   :     0.007690
      dxy     :     0.006182
  2 C s       :     3.088722  s :     3.088722
      pz      :     0.979961  p :     2.951664
      px      :     0.991379
      py      :     0.980325
      dz2     :     0.010540  d :     0.041111
      dxz     :     0.009813
      dyz     :     0.006568
      dx2y2   :     0.007617
      dxy     :     0.006574
  3 C s       :     3.195646  s :     3.195646
      pz      :     0.900391  p :     2.744393
      px      :     0.915921
      py      :     0.928081
      dz2     :     0.008118  d :     0.033689
      dxz     :     0.007684
      dyz     :     0.007439
      dx2y2   :     0.005307
      dxy     :     0.005141
  4 C s       :     3.051667  s :     3.051667
      pz      :     0.961303  p :     3.044045
      px      :     0.972320
      py      :     1.110422
      dz2     :     0.009230  d :     0.046358
      dxz     :     0.014790
      dyz     :     0.008750
      dx2y2   :     0.007046
      dxy     :     0.006542
  5 H s       :     0.962039  s :     0.962039
      pz      :     0.008193  p :     0.024771
      px      :     0.006893
      py      :     0.009685
  6 C s       :     2.980667  s :     2.980667
      pz      :     0.957100  p :     2.937312
      px      :     0.969655
      py      :     1.010557
      dz2     :     0.007591  d :     0.033914
      dxz     :     0.008743
      dyz     :     0.004865
      dx2y2   :     0.008644
      dxy     :     0.004072
  7 H s       :     0.933982  s :     0.933982
      pz      :     0.003910  p :     0.022175
      px      :     0.004833
      py      :     0.013432
  8 H s       :     0.939283  s :     0.939283
      pz      :     0.006161  p :     0.022163
      px      :     0.011202
      py      :     0.004800
  9 C s       :     3.142493  s :     3.142493
      pz      :     0.970145  p :     2.988734
      px      :     0.999353
      py      :     1.019236
      dz2     :     0.009511  d :     0.035016
      dxz     :     0.007528
      dyz     :     0.004516
      dx2y2   :     0.009393
      dxy     :     0.004067
 10 H s       :     0.933748  s :     0.933748
      pz      :     0.005048  p :     0.020370
      px      :     0.010890
      py      :     0.004432
 11 H s       :     0.928709  s :     0.928709
      pz      :     0.003657  p :     0.019840
      px      :     0.003033
      py      :     0.013150
 12 C s       :     3.002994  s :     3.002994
      pz      :     0.999033  p :     2.981132
      px      :     0.972659
      py      :     1.009439
      dz2     :     0.007190  d :     0.027456
      dxz     :     0.005699
      dyz     :     0.002101
      dx2y2   :     0.009532
      dxy     :     0.002934
 13 H s       :     0.950854  s :     0.950854
      pz      :     0.004838  p :     0.024084
      px      :     0.005162
      py      :     0.014085
 14 H s       :     0.923206  s :     0.923206
      pz      :     0.012969  p :     0.021744
      px      :     0.003829
      py      :     0.004947
 15 H s       :     0.943568  s :     0.943568
      pz      :     0.006036  p :     0.023809
      px      :     0.011931
      py      :     0.005842
 16 S s       :     5.847178  s :     5.847178
      pz      :     3.240333  p :     9.948029
      px      :     3.227773
      py      :     3.479922
      dz2     :     0.035218  d :     0.111335
      dxz     :     0.018471
      dyz     :     0.016203
      dx2y2   :     0.017493
      dxy     :     0.023950
 17 C s       :     3.177377  s :     3.177377
      pz      :     0.889708  p :     2.889259
      px      :     0.973444
      py      :     1.026106
      dz2     :     0.010349  d :     0.033717
      dxz     :     0.007108
      dyz     :     0.005569
      dx2y2   :     0.005218
      dxy     :     0.005473
 18 C s       :     3.190321  s :     3.190321
      pz      :     0.908105  p :     2.823169
      px      :     0.945203
      py      :     0.969861
      dz2     :     0.008085  d :     0.034049
      dxz     :     0.007696
      dyz     :     0.005315
      dx2y2   :     0.007458
      dxy     :     0.005494
 19 C s       :     3.043216  s :     3.043216
      pz      :     0.991643  p :     2.919000
      px      :     0.957592
      py      :     0.969765
      dz2     :     0.009646  d :     0.044072
      dxz     :     0.011533
      dyz     :     0.008920
      dx2y2   :     0.007530
      dxy     :     0.006443
 20 C s       :     3.077994  s :     3.077994
      pz      :     1.046923  p :     3.078548
      px      :     0.991451
      py      :     1.040175
      dz2     :     0.014118  d :     0.046144
      dxz     :     0.009244
      dyz     :     0.009330
      dx2y2   :     0.006076
      dxy     :     0.007377
 21 H s       :     0.948399  s :     0.948399
      pz      :     0.013861  p :     0.022302
      px      :     0.003453
      py      :     0.004988
 22 C s       :     2.981341  s :     2.981341
      pz      :     0.985525  p :     2.930699
      px      :     0.999428
      py      :     0.945746
      dz2     :     0.006793  d :     0.034868
      dxz     :     0.006696
      dyz     :     0.005009
      dx2y2   :     0.008077
      dxy     :     0.008293
 23 H s       :     0.940871  s :     0.940871
      pz      :     0.007925  p :     0.021337
      px      :     0.009779
      py      :     0.003633
 24 H s       :     0.952233  s :     0.952233
      pz      :     0.013080  p :     0.022763
      px      :     0.005306
      py      :     0.004377
 25 C s       :     3.062537  s :     3.062537
      pz      :     1.015694  p :     2.972398
      px      :     1.010666
      py      :     0.946038
      dz2     :     0.009348  d :     0.034407
      dxz     :     0.005195
      dyz     :     0.005238
      dx2y2   :     0.006175
      dxy     :     0.008451
 26 H s       :     0.947621  s :     0.947621
      pz      :     0.012507  p :     0.022028
      px      :     0.005369
      py      :     0.004152
 27 H s       :     0.944843  s :     0.944843
      pz      :     0.004956  p :     0.021729
      px      :     0.010151
      py      :     0.006622
 28 C s       :     3.018215  s :     3.018215
      pz      :     0.991747  p :     3.012162
      px      :     1.005084
      py      :     1.015331
      dz2     :     0.009123  d :     0.027689
      dxz     :     0.004849
      dyz     :     0.002090
      dx2y2   :     0.006851
      dxy     :     0.004775
 29 H s       :     0.937455  s :     0.937455
      pz      :     0.004595  p :     0.023542
      px      :     0.004950
      py      :     0.013997
 30 H s       :     0.960198  s :     0.960198
      pz      :     0.012815  p :     0.024683
      px      :     0.006165
      py      :     0.005703
 31 H s       :     0.938907  s :     0.938907
      pz      :     0.004664  p :     0.023378
      px      :     0.011859
      py      :     0.006854
 32 H s       :     0.919605  s :     0.919605
      pz      :     0.014912  p :     0.023281
      px      :     0.003169
      py      :     0.005199
 33 H s       :     0.910183  s :     0.910183
      pz      :     0.004712  p :     0.023743
      px      :     0.012175
      py      :     0.006855


                     *******************************
                     * LOEWDIN POPULATION ANALYSIS *
                     *******************************

----------------------
LOEWDIN ATOMIC CHARGES
----------------------
   0 S :    0.429120
   1 C :   -0.212475
   2 C :   -0.061530
   3 C :   -0.052907
   4 C :   -0.213948
   5 H :    0.026924
   6 C :   -0.031093
   7 H :    0.034706
   8 H :    0.028814
   9 C :   -0.058979
  10 H :    0.030713
  11 H :    0.031746
  12 C :   -0.070756
  13 H :    0.027890
  14 H :    0.037393
  15 H :    0.027147
  16 S :    0.409538
  17 C :   -0.189243
  18 C :   -0.074771
  19 C :   -0.061308
  20 C :   -0.200059
  21 H :    0.033409
  22 C :   -0.036792
  23 H :    0.042130
  24 H :    0.030674
  25 C :   -0.041868
  26 H :    0.026554
  27 H :    0.028297
  28 C :   -0.071665
  29 H :    0.028556
  30 H :    0.018758
  31 H :    0.026716
  32 H :    0.027545
  33 H :    0.030763

-------------------------------
LOEWDIN REDUCED ORBITAL CHARGES
-------------------------------
  0 S s       :     5.493032  s :     5.493032
      pz      :     2.987640  p :     9.935350
      px      :     3.336899
      py      :     3.610812
      dz2     :     0.023896  d :     0.142497
      dxz     :     0.055623
      dyz     :     0.032210
      dx2y2   :     0.017723
      dxy     :     0.013044
  1 C s       :     2.930485  s :     2.930485
      pz      :     1.048144  p :     3.198322
      px      :     1.036803
      py      :     1.113375
      dz2     :     0.019276  d :     0.083669
      dxz     :     0.023456
      dyz     :     0.009575
      dx2y2   :     0.015932
      dxy     :     0.015430
  2 C s       :     2.878618  s :     2.878618
      pz      :     1.047243  p :     3.083035
      px      :     1.036149
      py      :     0.999643
      dz2     :     0.028154  d :     0.099876
      dxz     :     0.025450
      dyz     :     0.015658
      dx2y2   :     0.014103
      dxy     :     0.016511
  3 C s       :     2.871876  s :     2.871876
      pz      :     1.031720  p :     3.091834
      px      :     1.045969
      py      :     1.014145
      dz2     :     0.023597  d :     0.089197
      dxz     :     0.020797
      dyz     :     0.018329
      dx2y2   :     0.012371
      dxy     :     0.014103
  4 C s       :     2.908052  s :     2.908052
      pz      :     1.030013  p :     3.195929
      px      :     1.073848
      py      :     1.092069
      dz2     :     0.022876  d :     0.109967
      dxz     :     0.037454
      dyz     :     0.019366
      dx2y2   :     0.014380
      dxy     :     0.015892
  5 H s       :     0.899373  s :     0.899373
      pz      :     0.025142  p :     0.073703
      px      :     0.020795
      py      :     0.027766
  6 C s       :     2.846085  s :     2.846085
      pz      :     1.025434  p :     3.102233
      px      :     1.027165
      py      :     1.049634
      dz2     :     0.019729  d :     0.082775
      dxz     :     0.020917
      dyz     :     0.010611
      dx2y2   :     0.021081
      dxy     :     0.010437
  7 H s       :     0.899602  s :     0.899602
      pz      :     0.013174  p :     0.065693
      px      :     0.013508
      py      :     0.039010
  8 H s       :     0.903797  s :     0.903797
      pz      :     0.020469  p :     0.067389
      px      :     0.033081
      py      :     0.013840
  9 C s       :     2.865053  s :     2.865053
      pz      :     1.023639  p :     3.110527
      px      :     1.038442
      py      :     1.048446
      dz2     :     0.023364  d :     0.083399
      dxz     :     0.017950
      dyz     :     0.009576
      dx2y2   :     0.023031
      dxy     :     0.009478
 10 H s       :     0.910477  s :     0.910477
      pz      :     0.014999  p :     0.058810
      px      :     0.031569
      py      :     0.012242
 11 H s       :     0.911382  s :     0.911382
      pz      :     0.010829  p :     0.056872
      px      :     0.008974
      py      :     0.037068
 12 C s       :     2.839544  s :     2.839544
      pz      :     1.050105  p :     3.160545
      px      :     1.043390
      py      :     1.067050
      dz2     :     0.018665  d :     0.070668
      dxz     :     0.015011
      dyz     :     0.005543
      dx2y2   :     0.023625
      dxy     :     0.007825
 13 H s       :     0.905718  s :     0.905718
      pz      :     0.012988  p :     0.066392
      px      :     0.013797
      py      :     0.039607
 14 H s       :     0.901751  s :     0.901751
      pz      :     0.037128  p :     0.060856
      px      :     0.010687
      py      :     0.013041
 15 H s       :     0.905947  s :     0.905947
      pz      :     0.017961  p :     0.066906
      px      :     0.034108
      py      :     0.014837
 16 S s       :     5.501917  s :     5.501917
      pz      :     3.250998  p :     9.951367
      px      :     3.230032
      py      :     3.470337
      dz2     :     0.045009  d :     0.137178
      dxz     :     0.022709
      dyz     :     0.017515
      dx2y2   :     0.021130
      dxy     :     0.030816
 17 C s       :     2.938293  s :     2.938293
      pz      :     1.016548  p :     3.171676
      px      :     1.073434
      py      :     1.081693
      dz2     :     0.024864  d :     0.079274
      dxz     :     0.017044
      dyz     :     0.013555
      dx2y2   :     0.010092
      dxy     :     0.013718
 18 C s       :     2.879045  s :     2.879045
      pz      :     1.040814  p :     3.107135
      px      :     1.030804
      py      :     1.035516
      dz2     :     0.021333  d :     0.088592
      dxz     :     0.021575
      dyz     :     0.014203
      dx2y2   :     0.016430
      dxy     :     0.015051
 19 C s       :     2.853180  s :     2.853180
      pz      :     1.058790  p :     3.096276
      px      :     1.029040
      py      :     1.008446
      dz2     :     0.026534  d :     0.111852
      dxz     :     0.030155
      dyz     :     0.023541
      dx2y2   :     0.015921
      dxy     :     0.015702
 20 C s       :     2.897958  s :     2.897958
      pz      :     1.088796  p :     3.189721
      px      :     1.034150
      py      :     1.066775
      dz2     :     0.037246  d :     0.112380
      dxz     :     0.022838
      dyz     :     0.023448
      dx2y2   :     0.012420
      dxy     :     0.016428
 21 H s       :     0.900994  s :     0.900994
      pz      :     0.039676  p :     0.065596
      px      :     0.010942
      py      :     0.014979
 22 C s       :     2.834649  s :     2.834649
      pz      :     1.056399  p :     3.114319
      px      :     1.037457
      py      :     1.020463
      dz2     :     0.018228  d :     0.087824
      dxz     :     0.017776
      dyz     :     0.010573
      dx2y2   :     0.020538
      dxy     :     0.020709
 23 H s       :     0.897515  s :     0.897515
      pz      :     0.021048  p :     0.060355
      px      :     0.027562
      py      :     0.011745
 24 H s       :     0.903396  s :     0.903396
      pz      :     0.036462  p :     0.065931
      px      :     0.015412
      py      :     0.014057
 25 C s       :     2.852556  s :     2.852556
      pz      :     1.050298  p :     3.106924
      px      :     1.053129
      py      :     1.003498
      dz2     :     0.022539  d :     0.082388
      dxz     :     0.013439
      dyz     :     0.010671
      dx2y2   :     0.015617
      dxy     :     0.020122
 26 H s       :     0.909615  s :     0.909615
      pz      :     0.035532  p :     0.063831
      px      :     0.014979
      py      :     0.013321
 27 H s       :     0.908209  s :     0.908209
      pz      :     0.013256  p :     0.063494
      px      :     0.029548
      py      :     0.020690
 28 C s       :     2.836335  s :     2.836335
      pz      :     1.048017  p :     3.165616
      px      :     1.053191
      py      :     1.064407
      dz2     :     0.021743  d :     0.069714
      dxz     :     0.013441
      dyz     :     0.005364
      dx2y2   :     0.017004
      dxy     :     0.012161
 29 H s       :     0.904980  s :     0.904980
      pz      :     0.013021  p :     0.066464
      px      :     0.014144
      py      :     0.039300
 30 H s       :     0.912122  s :     0.912122
      pz      :     0.036661  p :     0.069120
      px      :     0.017213
      py      :     0.015246
 31 H s       :     0.907717  s :     0.907717
      pz      :     0.013015  p :     0.065567
      px      :     0.034175
      py      :     0.018378
 32 H s       :     0.898574  s :     0.898574
      pz      :     0.044960  p :     0.073882
      px      :     0.011290
      py      :     0.017631
 33 H s       :     0.894371  s :     0.894371
      pz      :     0.017673  p :     0.074866
      px      :     0.036121
      py      :     0.021071


                      *****************************
                      * MAYER POPULATION ANALYSIS *
                      *****************************

  NA   - Mulliken gross atomic population
  ZA   - Total nuclear charge
  QA   - Mulliken gross atomic charge
  VA   - Mayer's total valence
  BVA  - Mayer's bonded valence
  FA   - Mayer's free valence

  ATOM       NA         ZA         QA         VA         BVA        FA
  0 S     15.8692    16.0000     0.1308     2.5085     2.5085     0.0000
  1 C      6.1427     6.0000    -0.1427     3.8552     3.8552    -0.0000
  2 C      6.0815     6.0000    -0.0815     3.9769     3.9769     0.0000
  3 C      5.9737     6.0000     0.0263     3.9259     3.9259    -0.0000
  4 C      6.1421     6.0000    -0.1421     3.8664     3.8664     0.0000
  5 H      0.9868     1.0000     0.0132     1.0048     1.0048     0.0000
  6 C      5.9519     6.0000     0.0481     3.9308     3.9308    -0.0000
  7 H      0.9562     1.0000     0.0438     0.9832     0.9832    -0.0000
  8 H      0.9614     1.0000     0.0386     0.9855     0.9855     0.0000
  9 C      6.1662     6.0000    -0.1662     4.0969     4.0969    -0.0000
 10 H      0.9541     1.0000     0.0459     0.9713     0.9713    -0.0000
 11 H      0.9485     1.0000     0.0515     0.9725     0.9725    -0.0000
 12 C      6.0116     6.0000    -0.0116     3.9743     3.9743    -0.0000
 13 H      0.9749     1.0000     0.0251     0.9888     0.9888    -0.0000
 14 H      0.9450     1.0000     0.0550     0.9850     0.9850    -0.0000
 15 H      0.9674     1.0000     0.0326     0.9907     0.9907     0.0000
 16 S     15.9065    16.0000     0.0935     2.4979     2.4979     0.0000
 17 C      6.1004     6.0000    -0.1004     3.8143     3.8143     0.0000
 18 C      6.0475     6.0000    -0.0475     3.9217     3.9217     0.0000
 19 C      6.0063     6.0000    -0.0063     4.0237     4.0237     0.0000
 20 C      6.2027     6.0000    -0.2027     3.9497     3.9497     0.0000
 21 H      0.9707     1.0000     0.0293     0.9965     0.9965     0.0000
 22 C      5.9469     6.0000     0.0531     3.9799     3.9799    -0.0000
 23 H      0.9622     1.0000     0.0378     0.9919     0.9919    -0.0000
 24 H      0.9750     1.0000     0.0250     0.9849     0.9849    -0.0000
 25 C      6.0693     6.0000    -0.0693     4.0721     4.0721    -0.0000
 26 H      0.9696     1.0000     0.0304     0.9808     0.9808    -0.0000
 27 H      0.9666     1.0000     0.0334     0.9751     0.9751     0.0000
 28 C      6.0581     6.0000    -0.0581     3.9901     3.9901    -0.0000
 29 H      0.9610     1.0000     0.0390     0.9883     0.9883    -0.0000
 30 H      0.9849     1.0000     0.0151     0.9889     0.9889     0.0000
 31 H      0.9623     1.0000     0.0377     0.9969     0.9969     0.0000
 32 H      0.9429     1.0000     0.0571     1.0046     1.0046     0.0000
 33 H      0.9339     1.0000     0.0661     0.9949     0.9949     0.0000

  Mayer bond orders larger than 0.100000
B(  0-S ,  1-C ) :   1.1534 B(  0-S ,  4-C ) :   1.1528 B(  1-C ,  2-C ) :   1.6074 
B(  1-C , 32-H ) :   0.9602 B(  2-C ,  3-C ) :   1.2556 B(  2-C ,  6-C ) :   0.9976 
B(  3-C ,  4-C ) :   1.5654 B(  3-C ,  5-H ) :   0.9961 B(  4-C , 20-C ) :   1.0282 
B(  6-C ,  7-H ) :   0.9397 B(  6-C ,  8-H ) :   0.9457 B(  6-C ,  9-C ) :   1.0693 
B(  9-C , 10-H ) :   0.9498 B(  9-C , 11-H ) :   0.9545 B(  9-C , 12-C ) :   1.0750 
B( 12-C , 13-H ) :   0.9689 B( 12-C , 14-H ) :   0.9719 B( 12-C , 15-H ) :   0.9730 
B( 16-S , 17-C ) :   1.1535 B( 16-S , 20-C ) :   1.1671 B( 17-C , 18-C ) :   1.5781 
B( 17-C , 20-C ) :   0.1014 B( 17-C , 33-H ) :   0.9757 B( 18-C , 19-C ) :   1.2442 
B( 18-C , 21-H ) :   0.9811 B( 19-C , 20-C ) :   1.5947 B( 19-C , 22-C ) :   1.0528 
B( 22-C , 23-H ) :   0.9284 B( 22-C , 24-H ) :   0.9346 B( 22-C , 25-C ) :   1.0705 
B( 25-C , 26-H ) :   0.9549 B( 25-C , 27-H ) :   0.9565 B( 25-C , 28-C ) :   1.0701 
B( 28-C , 29-H ) :   0.9743 B( 28-C , 30-H ) :   0.9747 B( 28-C , 31-H ) :   0.9736 


-------
TIMINGS
-------

Total SCF time: 0 days 0 hours 0 min 18 sec 

Total time                  ....      18.143 sec
Sum of individual times     ....      17.319 sec  ( 95.5%)

Fock matrix formation       ....      15.693 sec  ( 86.5%)
  XC integration            ....       1.357 sec  (  8.6% of F)
    Basis function eval.    ....       0.133 sec  (  9.8% of XC)
    Density eval.           ....       0.093 sec  (  6.8% of XC)
    XC-Functional eval.     ....       0.109 sec  (  8.0% of XC)
    XC-Potential eval.      ....       0.109 sec  (  8.0% of XC)
Diagonalization             ....       0.130 sec  (  0.7%)
Density matrix formation    ....       0.022 sec  (  0.1%)
Population analysis         ....       0.058 sec  (  0.3%)
Initial guess               ....       0.166 sec  (  0.9%)
Orbital Transformation      ....       0.000 sec  (  0.0%)
Orbital Orthonormalization  ....       0.000 sec  (  0.0%)
DIIS solution               ....       0.152 sec  (  0.8%)
SOSCF solution              ....       0.107 sec  (  0.6%)
Grid generation             ....       0.992 sec  (  5.5%)


-------------------------------------------------------------------------------
                          DFT DISPERSION CORRECTION                            
                                                                               
                              DFTD3 V3.1  Rev 1                                
                              USING zero damping                               
-------------------------------------------------------------------------------
The omegaB97X-D3 functional is recognized. Fit by Chai et al.
Active option DFTDOPT                   ...         3   

molecular C6(AA) [au] = 14163.992147 


            DFT-D V3
 parameters
 s6 scaling factor         :     1.0000 
 rs6 scaling factor        :     1.2810 
 s8 scaling factor         :     1.0000 
 rs8 scaling factor        :     1.0940 
 Damping factor alpha6     :    14.0000 
 Damping factor alpha8     :    16.0000 
 ad hoc parameters k1-k3   :    16.0000     1.3333    -4.0000 

 Edisp/kcal,au: -8.738273076485  -0.013925323052 
 E6   /kcal   :  -3.912079960 
 E8   /kcal   :  -4.826193117 
 % E8         :  55.230513791 

-------------------------   ----------------
Dispersion correction           -0.013925323
-------------------------   ----------------


-------------------------   --------------------
FINAL SINGLE POINT ENERGY     -1339.882693168583
-------------------------   --------------------


                            ***************************************
                            *     ORCA property calculations      *
                            ***************************************

                                    ---------------------
                                    Active property flags
                                    ---------------------
   (+) Dipole Moment


------------------------------------------------------------------------------
                       ORCA ELECTRIC PROPERTIES CALCULATION
------------------------------------------------------------------------------

Dipole Moment Calculation                       ... on
Quadrupole Moment Calculation                   ... off
Polarizability Calculation                      ... off
GBWName                                         ... config_2223.gbw
Electron density file                           ... config_2223.scfp
The origin for moment calculation is the CENTER OF MASS  = (-241.315833, 19.376410 -24.200194)

-------------
DIPOLE MOMENT
-------------
                                X             Y             Z
Electronic contribution:    -18.18167       6.74316      -1.92840
Nuclear contribution   :     18.58053      -6.55511       1.91376
                        -----------------------------------------
Total Dipole Moment    :      0.39886       0.18805      -0.01464
                        -----------------------------------------
Magnitude (a.u.)       :      0.44121
Magnitude (Debye)      :      1.12146



--------------------
Rotational spectrum 
--------------------
 
Rotational constants in cm-1:     0.024951     0.006743     0.006067 
Rotational constants in MHz :   748.024486   202.139381   181.891924 

 Dipole components along the rotational axes: 
x,y,z [a.u.] :     0.221381    -0.125310    -0.360489 
x,y,z [Debye]:     0.562706    -0.318512    -0.916291 

 

Timings for individual modules:

Sum of individual times         ...       19.287 sec (=   0.321 min)
GTO integral calculation        ...        0.765 sec (=   0.013 min)   4.0 %
SCF iterations                  ...       18.522 sec (=   0.309 min)  96.0 %
                             ****ORCA TERMINATED NORMALLY****
TOTAL RUN TIME: 0 days 0 hours 0 minutes 19 seconds 980 msec
