
                                 *****************
                                 * O   R   C   A *
                                 *****************

           --- An Ab Initio, DFT and Semiempirical electronic structure package ---

                  #######################################################
                  #                        -***-                        #
                  #          Department of theory and spectroscopy      #
                  #               Directorship: Frank Neese             #
                  #        Max Planck Institute fuer Kohlenforschung    #
                  #                Kaiser Wilhelm Platz 1               #
                  #                 D-45470 Muelheim/Ruhr               #
                  #                      Germany                        #
                  #                                                     #
                  #                  All rights reserved                #
                  #                        -***-                        #
                  #######################################################


                         Program Version 4.2.1 -  RELEASE  -


 With contributions from (in alphabetic order):
   Daniel Aravena         : Magnetic Suceptibility
   Michael Atanasov       : Ab Initio Ligand Field Theory (pilot matlab implementation)
   Alexander A. Auer      : GIAO ZORA, VPT2
   Ute Becker             : Parallelization
   Giovanni Bistoni       : ED, misc. LED, open-shell LED, HFLD
   Martin Brehm           : Molecular dynamics
   Dmytro Bykov           : SCF Hessian
   Vijay G. Chilkuri      : MRCI spin determinant printing, contributions to CSF-ICE
   Dipayan Datta          : RHF DLPNO-CCSD density
   Achintya Kumar Dutta   : EOM-CC, STEOM-CC
   Dmitry Ganyushin       : Spin-Orbit,Spin-Spin,Magnetic field MRCI
   Miquel Garcia          : C-PCM Hessian, Gaussian charge scheme
   Yang Guo               : DLPNO-NEVPT2, CIM, IAO-localization
   Andreas Hansen         : Spin unrestricted coupled pair/coupled cluster methods
   Benjamin Helmich-Paris : CASSCF linear response (MC-RPA)
   Lee Huntington         : MR-EOM, pCC
   Robert Izsak           : Overlap fitted RIJCOSX, COSX-SCS-MP3, EOM
   Christian Kollmar      : KDIIS, OOCD, Brueckner-CCSD(T), CCSD density
   Simone Kossmann        : Meta GGA functionals, TD-DFT gradient, OOMP2, MP2 Hessian
   Martin Krupicka        : AUTO-CI
   Lucas Lang             : DCDCAS
   Dagmar Lenk            : GEPOL surface, SMD
   Dimitrios Liakos       : Extrapolation schemes; Compound Job, initial MDCI parallelization
   Dimitrios Manganas     : Further ROCIS development; embedding schemes
   Dimitrios Pantazis     : SARC Basis sets
   Taras Petrenko         : DFT Hessian,TD-DFT gradient, ASA, ECA, R-Raman, ABS, FL, XAS/XES, NRVS
   Peter Pinski           : DLPNO-MP2, DLPNO-MP2 Gradient
   Christoph Reimann      : Effective Core Potentials
   Marius Retegan         : Local ZFS, SOC
   Christoph Riplinger    : Optimizer, TS searches, QM/MM, DLPNO-CCSD(T), (RO)-DLPNO pert. Triples
   Tobias Risthaus        : Range-separated hybrids, TD-DFT gradient, RPA, STAB
   Michael Roemelt        : Original ROCIS implementation
   Masaaki Saitow         : Open-shell DLPNO-CCSD energy and density
   Barbara Sandhoefer     : DKH picture change effects
   Avijit Sen             : IP-ROCIS
   Kantharuban Sivalingam : CASSCF convergence, NEVPT2, FIC-MRCI
   Bernardo de Souza      : ESD, SOC TD-DFT
   Georgi Stoychev        : AutoAux, RI-MP2 NMR
   Willem Van den Heuvel  : Paramagnetic NMR
   Boris Wezisla          : Elementary symmetry handling
   Frank Wennmohs         : Technical directorship


 We gratefully acknowledge several colleagues who have allowed us to
 interface, adapt or use parts of their codes:
   Stefan Grimme, W. Hujo, H. Kruse,             : VdW corrections, initial TS optimization,
                  C. Bannwarth                     DFT functionals, gCP, sTDA/sTD-DF
   Ed Valeev, F. Pavosevic, A. Kumar             : LibInt (2-el integral package), F12 methods
   Garnet Chan, S. Sharma, J. Yang, R. Olivares  : DMRG
   Ulf Ekstrom                                   : XCFun DFT Library
   Mihaly Kallay                                 : mrcc  (arbitrary order and MRCC methods)
   Andreas Klamt, Michael Diedenhofen            : otool_cosmo (COSMO solvation model)
   Jiri Pittner, Ondrej Demel                    : Mk-CCSD
   Frank Weinhold                                : gennbo (NPA and NBO analysis)
   Christopher J. Cramer and Donald G. Truhlar   : smd solvation model
   Lars Goerigk                                  : TD-DFT with DH, B97 family of functionals
   V. Asgeirsson, H. Jonsson                     : NEB implementation
   FAccTs GmbH                                   : IRC, NEB, NEB-TS, Multilevel, MM, QM/MM, CI optimization
   S Lehtola, MJT Oliveira, MAL Marques          : LibXC Library


 Your calculation uses the libint2 library for the computation of 2-el integrals
 For citations please refer to: http://libint.valeyev.net

 Your ORCA version has been built with support for libXC version: 4.2.3
 For citations please refer to: https://tddft.org/programs/libxc/

 This ORCA versions uses:
   CBLAS   interface :  Fast vector & matrix operations
   LAPACKE interface :  Fast linear algebra routines
   SCALAPACK package :  Parallel linear algebra routines


Your calculation utilizes the atom-pairwise dispersion correction
with the zero-damping scheme (D30)
Cite in your paper:
S.Grimme, J.Antony, S.Ehrlich and H.Krieg, J.Chem.Phys., 132, (2010), 154104 
   

XCFun DFT library Copyright 2009-2010 Ulf Ekstrom and contributors.
See http://admol.org/xcfun for more information. This is free soft-
ware; see the source code for copying conditions. There is ABSOLUTELY
NO WARRANTY; not even for MERCHANTABILITY or FITNESS FOR A PARTICULAR
PURPOSE. For details see the documentation. Scientific users of this 
library should cite U. Ekstrom, L. Visscher, R. Bast, A. J. Thorvald-
sen and K. Ruud; J.Chem.Theor.Comp. 2010, DOI: 10.1021/ct100117s
XCFun Version 0.99 
----- Orbital basis set information -----
Your calculation utilizes the basis: def2-SVP
   F. Weigend and R. Ahlrichs, Phys. Chem. Chem. Phys. 7, 3297 (2005).

================================================================================
                                        WARNINGS
                       Please study these warnings very carefully!
================================================================================


INFO   : the flag for use of LIBINT has been found!

================================================================================
                                       INPUT FILE
================================================================================
NAME = config_4292.inp
|  1> ! wB97X-D3 SP def2-SVP
|  2> %pal
|  3> nprocs 24
|  4> end
|  5> 
|  6> * xyz 0 1
|  7> S 	 -111.309 	 62.2753 	 -71.331 	 
|  8> C 	 -111.1 	 60.5578 	 -71.469 	 
|  9> C 	 -111.674 	 59.8512 	 -70.4105 	 
| 10> C 	 -112.379 	 60.7333 	 -69.4935 	 
| 11> C 	 -112.299 	 62.0954 	 -69.8933 	 
| 12> H 	 -112.848 	 60.4374 	 -68.5554 	 
| 13> C 	 -111.6 	 58.3563 	 -70.1975 	 
| 14> H 	 -111.21 	 57.9017 	 -71.0411 	 
| 15> H 	 -112.601 	 57.9354 	 -70.1096 	 
| 16> C 	 -110.832 	 57.9016 	 -68.9312 	 
| 17> H 	 -110.99 	 56.8574 	 -68.7189 	 
| 18> H 	 -109.799 	 58.0729 	 -68.95 	 
| 19> C 	 -111.396 	 58.5192 	 -67.6095 	 
| 20> H 	 -111.15 	 59.5761 	 -67.5841 	 
| 21> H 	 -112.487 	 58.4543 	 -67.5931 	 
| 22> H 	 -110.985 	 58.0491 	 -66.6364 	 
| 23> S 	 -111.762 	 64.6546 	 -68.974 	 
| 24> C 	 -112.962 	 65.4108 	 -67.9668 	 
| 25> C 	 -114.101 	 64.6566 	 -67.8769 	 
| 26> C 	 -114.066 	 63.4589 	 -68.5928 	 
| 27> C 	 -112.818 	 63.2331 	 -69.1471 	 
| 28> H 	 -114.921 	 65.0909 	 -67.3685 	 
| 29> C 	 -115.203 	 62.4819 	 -68.5898 	 
| 30> H 	 -115.16 	 62.0163 	 -67.5601 	 
| 31> H 	 -114.935 	 61.6327 	 -69.1639 	 
| 32> C 	 -116.665 	 62.9397 	 -68.9168 	 
| 33> H 	 -116.998 	 63.6462 	 -68.1945 	 
| 34> H 	 -117.445 	 62.1489 	 -68.8137 	 
| 35> C 	 -116.903 	 63.5578 	 -70.3635 	 
| 36> H 	 -116.448 	 62.8263 	 -71.0266 	 
| 37> H 	 -116.373 	 64.5379 	 -70.4097 	 
| 38> H 	 -118.005 	 63.526 	 -70.5348 	 
| 39> H 	 -110.353 	 60.1287 	 -72.1468 	 
| 40> H 	 -112.799 	 66.3403 	 -67.4636 	 
| 41> *
| 42> 
| 43>                          ****END OF INPUT****
================================================================================

                       ****************************
                       * Single Point Calculation *
                       ****************************

---------------------------------
CARTESIAN COORDINATES (ANGSTROEM)
---------------------------------
  S    -111.309000   62.275300  -71.331000
  C    -111.100000   60.557800  -71.469000
  C    -111.674000   59.851200  -70.410500
  C    -112.379000   60.733300  -69.493500
  C    -112.299000   62.095400  -69.893300
  H    -112.848000   60.437400  -68.555400
  C    -111.600000   58.356300  -70.197500
  H    -111.210000   57.901700  -71.041100
  H    -112.601000   57.935400  -70.109600
  C    -110.832000   57.901600  -68.931200
  H    -110.990000   56.857400  -68.718900
  H    -109.799000   58.072900  -68.950000
  C    -111.396000   58.519200  -67.609500
  H    -111.150000   59.576100  -67.584100
  H    -112.487000   58.454300  -67.593100
  H    -110.985000   58.049100  -66.636400
  S    -111.762000   64.654600  -68.974000
  C    -112.962000   65.410800  -67.966800
  C    -114.101000   64.656600  -67.876900
  C    -114.066000   63.458900  -68.592800
  C    -112.818000   63.233100  -69.147100
  H    -114.921000   65.090900  -67.368500
  C    -115.203000   62.481900  -68.589800
  H    -115.160000   62.016300  -67.560100
  H    -114.935000   61.632700  -69.163900
  C    -116.665000   62.939700  -68.916800
  H    -116.998000   63.646200  -68.194500
  H    -117.445000   62.148900  -68.813700
  C    -116.903000   63.557800  -70.363500
  H    -116.448000   62.826300  -71.026600
  H    -116.373000   64.537900  -70.409700
  H    -118.005000   63.526000  -70.534800
  H    -110.353000   60.128700  -72.146800
  H    -112.799000   66.340300  -67.463600

----------------------------
CARTESIAN COORDINATES (A.U.)
----------------------------
  NO LB      ZA    FRAG     MASS         X           Y           Z
   0 S    16.0000    0    32.060  -210.343526  117.683262  -134.796055
   1 C     6.0000    0    12.011  -209.948573  114.437657  -135.056837
   2 C     6.0000    0    12.011  -211.033276  113.102377  -133.056562
   3 C     6.0000    0    12.011  -212.365533  114.769304  -131.323683
   4 C     6.0000    0    12.011  -212.214355  117.343300  -132.079196
   5 H     1.0000    0     1.008  -213.251815  114.210134  -129.550931
   6 C     6.0000    0    12.011  -210.893437  110.277425  -132.654050
   7 H     1.0000    0     1.008  -210.156443  109.418356  -134.248223
   8 H     1.0000    0     1.008  -212.785052  109.482039  -132.487943
   9 C     6.0000    0    12.011  -209.442127  109.418167  -130.261090
  10 H     1.0000    0     1.008  -209.740704  107.444915  -129.859901
  11 H     1.0000    0     1.008  -207.490040  109.741877  -130.296617
  12 C     6.0000    0    12.011  -210.507932  110.585262  -127.763439
  13 H     1.0000    0     1.008  -210.043060  112.582513  -127.715440
  14 H     1.0000    0     1.008  -212.569624  110.462618  -127.732448
  15 H     1.0000    0     1.008  -209.731255  109.696901  -125.924547
  16 S    16.0000    0    32.060  -211.199572  122.179487  -130.341970
  17 C     6.0000    0    12.011  -213.467244  123.608498  -128.438638
  18 C     6.0000    0    12.011  -215.619642  122.183267  -128.268752
  19 C     6.0000    0    12.011  -215.553501  119.919942  -129.621607
  20 C     6.0000    0    12.011  -213.195123  119.493242  -130.669082
  21 H     1.0000    0     1.008  -217.169217  123.003975  -127.308015
  22 C     6.0000    0    12.011  -217.702120  118.073679  -129.615938
  23 H     1.0000    0     1.008  -217.620862  117.193823  -127.670087
  24 H     1.0000    0     1.008  -217.195673  116.468924  -130.700829
  25 C     6.0000    0    12.011  -220.464899  118.938796  -130.233878
  26 H     1.0000    0     1.008  -221.094178  120.273887  -128.868929
  27 H     1.0000    0     1.008  -221.938886  117.444401  -130.039047
  28 C     6.0000    0    12.011  -220.914654  120.106836  -132.967745
  29 H     1.0000    0     1.008  -220.054829  118.724501  -134.220822
  30 H     1.0000    0     1.008  -219.913099  121.958956  -133.055050
  31 H     1.0000    0     1.008  -222.997132  120.046742  -133.291455
  32 H     1.0000    0     1.008  -208.536948  113.626776  -136.337693
  33 H     1.0000    0     1.008  -213.159218  125.364999  -127.487728

--------------------------------
INTERNAL COORDINATES (ANGSTROEM)
--------------------------------
 S      0   0   0     0.000000000000     0.00000000     0.00000000
 C      1   0   0     1.735664498110     0.00000000     0.00000000
 C      2   1   0     1.396131014626   113.01852004     0.00000000
 C      3   2   1     1.454652676758   111.73368469     3.53284669
 C      4   3   2     1.421814492119   112.11098503   359.43633772
 H      4   3   2     1.089747411100   125.91559675   184.66599565
 C      3   2   1     1.511810507306   125.95474923   183.58970431
 H      7   3   2     1.034612062563   109.75803989   349.58486218
 H      7   3   2     1.089442160007   110.39047858   235.48825233
 C      7   3   2     1.549222960067   115.44502820   115.28216778
 H     10   7   3     1.077213502515   111.89374101   167.78078128
 H     10   7   3     1.047275575004   115.23263797   291.48261644
 C     10   7   3     1.564102506232   113.33168201    56.37093096
 H     13  10   7     1.085448649177   108.81572538   288.93535191
 H     13  10   7     1.093051677644   110.43516011    45.47190990
 H     13  10   7     1.156217375756   114.99048092   168.70988750
 S      5   4   3     2.771820003175   143.33653659   227.58497718
 C     17   5   4     1.739623602967   117.36972787   286.87791089
 C     18  17   5     1.369021785802   111.86681534   353.75745278
 C     19  18  17     1.395787627112   114.71960316     0.18870945
 C     20  19  18     1.384101921825   111.59233412     5.67305937
 H     19  18  17     1.058058150576   116.75737154   186.37909493
 C     20  19  18     1.499102064571   122.62831684   178.39378015
 H     23  20  19     1.130890998284   103.96357040   287.28795354
 H     23  20  19     1.059507173171   109.23392792   182.53987231
 C     23  20  19     1.566510082955   121.12955163    51.79662366
 H     26  23  20     1.063836707395   110.15041939   297.58615472
 H     26  23  20     1.115524204130   115.22092108   184.28470774
 C     26  23  20     1.591110461282   116.29082862    61.13150849
 H     29  26  23     1.087114924927   103.33250790    49.88756631
 H     29  26  23     1.115181801322   107.93837256   291.63464088
 H     29  26  23     1.115687648941   106.03806542   162.81308159
 H      2   1   3     1.096151745882   121.23752096   196.72739137
 H     18  17   5     1.069462243373   123.03051434   172.08956187

---------------------------
INTERNAL COORDINATES (A.U.)
---------------------------
 S      0   0   0     0.000000000000     0.00000000     0.00000000
 C      1   0   0     3.279930561798     0.00000000     0.00000000
 C      2   1   0     2.638305264716   113.01852004     0.00000000
 C      3   2   1     2.748895179049   111.73368469     3.53284669
 C      4   3   2     2.686840003346   112.11098503   359.43633772
 H      4   3   2     2.059324162129   125.91559675   184.66599565
 C      3   2   1     2.856907825192   125.95474923   183.58970431
 H      7   3   2     1.955133453095   109.75803989   349.58486218
 H      7   3   2     2.058747321160   110.39047858   235.48825233
 C      7   3   2     2.927607114910   115.44502820   115.28216778
 H     10   7   3     2.035638507515   111.89374101   167.78078128
 H     10   7   3     1.979064023502   115.23263797   291.48261644
 C     10   7   3     2.955725382158   113.33168201    56.37093096
 H     13  10   7     2.051200679379   108.81572538   288.93535191
 H     13  10   7     2.065568320970   110.43516011    45.47190990
 H     13  10   7     2.184934191460   114.99048092   168.70988750
 S      5   4   3     5.237980698525   143.33653659   227.58497718
 C     17   5   4     3.287412185713   117.36972787   286.87791089
 C     18  17   5     2.587076246537   111.86681534   353.75745278
 C     19  18  17     2.637656356358   114.71960316     0.18870945
 C     20  19  18     2.615573573684   111.59233412     5.67305937
 H     19  18  17     1.999440138352   116.75737154   186.37909493
 C     20  19  18     2.832892348834   122.62831684   178.39378015
 H     23  20  19     2.137074274074   103.96357040   287.28795354
 H     23  20  19     2.002178394218   109.23392792   182.53987231
 C     23  20  19     2.960275042811   121.12955163    51.79662366
 H     26  23  20     2.010360028188   110.15041939   297.58615472
 H     26  23  20     2.108035241566   115.22092108   184.28470774
 C     26  23  20     3.006763020639   116.29082862    61.13150849
 H     29  26  23     2.054349484211   103.33250790    49.88756631
 H     29  26  23     2.107388194032   107.93837256   291.63464088
 H     29  26  23     2.108344107497   106.03806542   162.81308159
 H      2   1   3     2.071426600936   121.23752096   196.72739137
 H     18  17   5     2.020990750544   123.03051434   172.08956187

---------------------
BASIS SET INFORMATION
---------------------
There are 3 groups of distinct atoms

 Group   1 Type S   : 10s7p1d contracted to 4s3p1d pattern {5311/511/1}
 Group   2 Type C   : 7s4p1d contracted to 3s2p1d pattern {511/31/1}
 Group   3 Type H   : 4s1p contracted to 2s1p pattern {31/1}

Atom   0S    basis set group =>   1
Atom   1C    basis set group =>   2
Atom   2C    basis set group =>   2
Atom   3C    basis set group =>   2
Atom   4C    basis set group =>   2
Atom   5H    basis set group =>   3
Atom   6C    basis set group =>   2
Atom   7H    basis set group =>   3
Atom   8H    basis set group =>   3
Atom   9C    basis set group =>   2
Atom  10H    basis set group =>   3
Atom  11H    basis set group =>   3
Atom  12C    basis set group =>   2
Atom  13H    basis set group =>   3
Atom  14H    basis set group =>   3
Atom  15H    basis set group =>   3
Atom  16S    basis set group =>   1
Atom  17C    basis set group =>   2
Atom  18C    basis set group =>   2
Atom  19C    basis set group =>   2
Atom  20C    basis set group =>   2
Atom  21H    basis set group =>   3
Atom  22C    basis set group =>   2
Atom  23H    basis set group =>   3
Atom  24H    basis set group =>   3
Atom  25C    basis set group =>   2
Atom  26H    basis set group =>   3
Atom  27H    basis set group =>   3
Atom  28C    basis set group =>   2
Atom  29H    basis set group =>   3
Atom  30H    basis set group =>   3
Atom  31H    basis set group =>   3
Atom  32H    basis set group =>   3
Atom  33H    basis set group =>   3


           ************************************************************
           *        Program running with 24 parallel MPI-processes    *
           *              working on a common directory               *
           ************************************************************
------------------------------------------------------------------------------
                           ORCA GTO INTEGRAL CALCULATION
------------------------------------------------------------------------------

                         BASIS SET STATISTICS AND STARTUP INFO

 # of primitive gaussian shells          ...  294
 # of primitive gaussian functions       ...  534
 # of contracted shells                  ...  154
 # of contracted basis functions         ...  322
 Highest angular momentum                ...    2
 Maximum contraction depth               ...    5
 Integral package used                   ... LIBINT
 Integral threshhold            Thresh   ...  1.000e-10
 Primitive cut-off              TCut     ...  1.000e-11


------------------------------ INTEGRAL EVALUATION ----------------------------


 * One electron integrals 
 Pre-screening matrix                    ... done
 Shell pair data                         ... done (   0.003 sec)



           ************************************************************
           *        Program running with 24 parallel MPI-processes    *
           *              working on a common directory               *
           ************************************************************
-------------------------------------------------------------------------------
                                 ORCA SCF
-------------------------------------------------------------------------------

------------
SCF SETTINGS
------------
Hamiltonian:
 Density Functional     Method          .... DFT(GTOs)
 Exchange Functional    Exchange        .... WB97X-D3
 Correlation Functional Correlation     .... WB97X-D3
 Gradients option       PostSCFGGA      .... off
 Hybrid DFT is turned on
   Fraction HF Exchange ScalHFX         ....  0.195728
   Scaling of DF-GGA-X  ScalDFX         ....  0.000000
   Scaling of DF-GGA-C  ScalDFC         ....  1.000000
   Scaling of DF-LDA-C  ScalLDAC        ....  1.000000
   Perturbative correction              ....  0.000000
   Density functional embedding theory  .... OFF
 Long-range corrected/Screened/Range-Separated Hybrid DFT is turned on
   Amount of maximum screened exact exchange              ....  0.804272
   Range separation parameter mu (erf(mu*r12)/r12)        ....  0.250000


General Settings:
 Integral files         IntName         .... config_4292
 Hartree-Fock type      HFTyp           .... RHF
 Total Charge           Charge          ....    0
 Multiplicity           Mult            ....    1
 Number of Electrons    NEL             ....  134
 Basis Dimension        Dim             ....  322
 Nuclear Repulsion      ENuc            ....   1290.8206763838 Eh

Convergence Acceleration:
 DIIS                   CNVDIIS         .... on
   Start iteration      DIISMaxIt       ....    12
   Startup error        DIISStart       ....  0.200000
   # of expansion vecs  DIISMaxEq       ....     5
   Bias factor          DIISBfac        ....   1.050
   Max. coefficient     DIISMaxC        ....  10.000
 Newton-Raphson         CNVNR           .... off
 SOSCF                  CNVSOSCF        .... on
   Start iteration      SOSCFMaxIt      ....   150
   Startup grad/error   SOSCFStart      ....  0.003300
 Level Shifting         CNVShift        .... on
   Level shift para.    LevelShift      ....    0.2500
   Turn off err/grad.   ShiftErr        ....    0.0010
 Zerner damping         CNVZerner       .... off
 Static damping         CNVDamp         .... on
   Fraction old density DampFac         ....    0.7000
   Max. Damping (<1)    DampMax         ....    0.9800
   Min. Damping (>=0)   DampMin         ....    0.0000
   Turn off err/grad.   DampErr         ....    0.1000
 Fernandez-Rico         CNVRico         .... off

SCF Procedure:
 Maximum # iterations   MaxIter         ....   125
 SCF integral mode      SCFMode         .... Direct
   Integral package                     .... LIBINT
 Reset frequency        DirectResetFreq ....    20
 Integral Threshold     Thresh          ....  1.000e-10 Eh
 Primitive CutOff       TCut            ....  1.000e-11 Eh

Convergence Tolerance:
 Convergence Check Mode ConvCheckMode   .... Total+1el-Energy
 Convergence forced     ConvForced      .... 0
 Energy Change          TolE            ....  1.000e-06 Eh
 1-El. energy change                    ....  1.000e-03 Eh
 Orbital Gradient       TolG            ....  5.000e-05
 Orbital Rotation angle TolX            ....  5.000e-05
 DIIS Error             TolErr          ....  1.000e-06


Diagonalization of the overlap matrix:
Smallest eigenvalue                        ... 6.811e-04
Time for diagonalization                   ...    0.015 sec
Threshold for overlap eigenvalues          ... 1.000e-08
Number of eigenvalues below threshold      ... 0
Time for construction of square roots      ...    0.025 sec
Total time needed                          ...    0.040 sec

-------------------
DFT GRID GENERATION
-------------------

General Integration Accuracy     IntAcc      ...  4.340
Radial Grid Type                 RadialGrid  ... Gauss-Chebyshev
Angular Grid (max. acc.)         AngularGrid ... Lebedev-110
Angular grid pruning method      GridPruning ... 3 (G Style)
Weight generation scheme         WeightScheme... Becke
Basis function cutoff            BFCut       ...    1.0000e-10
Integration weight cutoff        WCut        ...    1.0000e-14
Grids for H and He will be reduced by one unit

# of grid points (after initial pruning)     ...  41088 (   0.0 sec)
# of grid points (after weights+screening)   ...  36927 (   0.0 sec)
nearest neighbour list constructed           ...    0.0 sec
Grid point re-assignment to atoms done       ...    0.0 sec
Grid point division into batches done        ...    0.0 sec
Reduced shell lists constructed in    0.1 sec

Total number of grid points                  ...    36927
Total number of batches                      ...      593
Average number of points per batch           ...       62
Average number of grid points per atom       ...     1086
Average number of shells per batch           ...    73.46 (47.70%)
Average number of basis functions per batch  ...   144.08 (44.74%)
Average number of large shells per batch     ...    46.58 (63.40%)
Average number of large basis fcns per batch ...    96.35 (66.87%)
Maximum spatial batch extension              ...  17.03, 13.53, 16.02 au
Average spatial batch extension              ...   0.17,  0.15,  0.17 au

Time for grid setup =    0.145 sec

------------------------------
INITIAL GUESS: MODEL POTENTIAL
------------------------------
Loading Hartree-Fock densities                     ... done
Calculating cut-offs                               ... done
Setting up the integral package                    ... done
Initializing the effective Hamiltonian             ... done
Starting the Coulomb interaction                   ... done (   0.0 sec)
Reading the grid                                   ... done
Mapping shells                                     ... done
Starting the XC term evaluation                    ... done (   0.0 sec)
  promolecular density results
     # of electrons  =    133.992172386
     EX              =   -126.695688389
     EC              =     -4.617557054
     EX+EC           =   -131.313245443
Transforming the Hamiltonian                       ... done (   0.0 sec)
Diagonalizing the Hamiltonian                      ... done (   0.0 sec)
Back transforming the eigenvectors                 ... done (   0.0 sec)
Now organizing SCF variables                       ... done
                      ------------------
                      INITIAL GUESS DONE (   0.3 sec)
                      ------------------
--------------
SCF ITERATIONS
--------------
ITER       Energy         Delta-E        Max-DP      RMS-DP      [F,P]     Damp
               ***  Starting incremental Fock matrix formation  ***
  0  -1339.4335301794   0.000000000000 0.06255247  0.00157394  0.1521125 0.7000
  1  -1339.6181976565  -0.184667477130 0.04211247  0.00114096  0.0920557 0.7000
                               ***Turning on DIIS***
  2  -1339.7068036354  -0.088605978917 0.08065773  0.00214061  0.0478368 0.0000
  3  -1339.8407116536  -0.133908018143 0.04365004  0.00099832  0.0443235 0.0000
  4  -1339.8700492338  -0.029337580178 0.00718152  0.00019800  0.0069978 0.0000
                      *** Initiating the SOSCF procedure ***
                           *** Shutting down DIIS ***
                      *** Re-Reading the Fockian *** 
                      *** Removing any level shift *** 
ITER      Energy       Delta-E        Grad      Rot      Max-DP    RMS-DP
  5  -1339.87093009  -0.0008808599  0.001484  0.001484  0.003009  0.000098
               *** Restarting incremental Fock matrix formation ***
  6  -1339.87111772  -0.0001876218  0.001104  0.003082  0.002330  0.000064
  7  -1339.87118422  -0.0000665071  0.000604  0.003794  0.002404  0.000063
  8  -1339.87120169  -0.0000174625  0.000399  0.000805  0.000809  0.000020
  9  -1339.87120647  -0.0000047836  0.000143  0.000345  0.000307  0.000009
 10  -1339.87120688  -0.0000004095  0.000065  0.000193  0.000163  0.000004
                 **** Energy Check signals convergence ****
              ***Rediagonalizing the Fockian in SOSCF/NRSCF***

               *****************************************************
               *                     SUCCESS                       *
               *           SCF CONVERGED AFTER  11 CYCLES          *
               *****************************************************

Setting up the final grid:

General Integration Accuracy     IntAcc      ...  4.670
Radial Grid Type                 RadialGrid  ... Gauss-Chebyshev
Angular Grid (max. acc.)         AngularGrid ... Lebedev-302
Angular grid pruning method      GridPruning ... 3 (G Style)
Weight generation scheme         WeightScheme... Becke
Basis function cutoff            BFCut       ...    1.0000e-10
Integration weight cutoff        WCut        ...    1.0000e-14
Grids for H and He will be reduced by one unit

# of grid points (after initial pruning)     ... 161752 (   0.0 sec)
# of grid points (after weights+screening)   ... 142433 (   0.1 sec)
nearest neighbour list constructed           ...    0.0 sec
Grid point re-assignment to atoms done       ...    0.0 sec
Grid point division into batches done        ...    0.5 sec
Reduced shell lists constructed in    0.5 sec

Total number of grid points                  ...   142433
Total number of batches                      ...     2242
Average number of points per batch           ...       63
Average number of grid points per atom       ...     4189
Average number of shells per batch           ...    66.88 (43.43%)
Average number of basis functions per batch  ...   130.76 (40.61%)
Average number of large shells per batch     ...    40.45 (60.48%)
Average number of large basis fcns per batch ...    83.42 (63.80%)
Maximum spatial batch extension              ...  13.07, 10.58, 14.35 au
Average spatial batch extension              ...   0.11,  0.10,  0.11 au

Final grid set up in    0.9 sec
Final integration                            ... done (   0.3 sec)
Change in XC energy                          ...     0.006351644
Integrated number of electrons               ...   133.999958146
Previous integrated no of electrons          ...   134.001223558

----------------
TOTAL SCF ENERGY
----------------

Total Energy       :        -1339.86485551 Eh          -36459.57629 eV

Components:
Nuclear Repulsion  :         1290.82067638 Eh           35125.01633 eV
Electronic Energy  :        -2630.68553190 Eh          -71584.59261 eV
One Electron Energy:        -4398.29811649 Eh         -119683.77636 eV
Two Electron Energy:         1767.61258459 Eh           48099.18374 eV

Virial components:
Potential Energy   :        -2671.22175143 Eh          -72687.63922 eV
Kinetic Energy     :         1331.35689592 Eh           36228.06294 eV
Virial Ratio       :            2.00639044


DFT components:
N(Alpha)           :       66.999979072980 electrons
N(Beta)            :       66.999979072980 electrons
N(Total)           :      133.999958145959 electrons
E(XC)              :      -94.230219345884 Eh       
DFET-embed. en.    :        0.000000000000 Eh       

---------------
SCF CONVERGENCE
---------------

  Last Energy change         ...   -2.7924e-07  Tolerance :   1.0000e-06
  Last MAX-Density change    ...    3.1621e-05  Tolerance :   1.0000e-05
  Last RMS-Density change    ...    7.5177e-07  Tolerance :   1.0000e-06
  Last Orbital Gradient      ...    7.9728e-06  Tolerance :   5.0000e-05
  Last Orbital Rotation      ...    2.3159e-05  Tolerance :   5.0000e-05

             **** THE GBW FILE WAS UPDATED (config_4292.gbw) ****
             **** DENSITY FILE WAS UPDATED (config_4292.scfp) ****
             **** ENERGY FILE WAS UPDATED (config_4292.en.tmp) ****
             **** THE GBW FILE WAS UPDATED (config_4292.gbw) ****
             **** DENSITY FILE WAS UPDATED (config_4292.scfp) ****
----------------
ORBITAL ENERGIES
----------------

  NO   OCC          E(Eh)            E(eV) 
   0   2.0000     -88.968386     -2420.9529 
   1   2.0000     -88.965389     -2420.8713 
   2   2.0000     -10.333211      -281.1810 
   3   2.0000     -10.326878      -281.0086 
   4   2.0000     -10.315456      -280.6978 
   5   2.0000     -10.314647      -280.6758 
   6   2.0000     -10.306313      -280.4490 
   7   2.0000     -10.301987      -280.3313 
   8   2.0000     -10.299504      -280.2637 
   9   2.0000     -10.293437      -280.0987 
  10   2.0000     -10.290873      -280.0289 
  11   2.0000     -10.290168      -280.0097 
  12   2.0000     -10.286726      -279.9160 
  13   2.0000     -10.284155      -279.8461 
  14   2.0000     -10.282946      -279.8132 
  15   2.0000     -10.282552      -279.8025 
  16   2.0000      -8.083094      -219.9522 
  17   2.0000      -8.080093      -219.8705 
  18   2.0000      -6.041558      -164.3991 
  19   2.0000      -6.038510      -164.3162 
  20   2.0000      -6.037621      -164.2920 
  21   2.0000      -6.034703      -164.2126 
  22   2.0000      -6.033902      -164.1908 
  23   2.0000      -6.030866      -164.1082 
  24   2.0000      -1.006118       -27.3779 
  25   2.0000      -0.982990       -26.7485 
  26   2.0000      -0.911609       -24.8061 
  27   2.0000      -0.901844       -24.5404 
  28   2.0000      -0.868403       -23.6304 
  29   2.0000      -0.849608       -23.1190 
  30   2.0000      -0.840694       -22.8764 
  31   2.0000      -0.814161       -22.1544 
  32   2.0000      -0.785331       -21.3700 
  33   2.0000      -0.771482       -20.9931 
  34   2.0000      -0.704526       -19.1711 
  35   2.0000      -0.701987       -19.1020 
  36   2.0000      -0.696934       -18.9645 
  37   2.0000      -0.659814       -17.9544 
  38   2.0000      -0.640185       -17.4203 
  39   2.0000      -0.618138       -16.8204 
  40   2.0000      -0.598628       -16.2895 
  41   2.0000      -0.575282       -15.6542 
  42   2.0000      -0.551260       -15.0005 
  43   2.0000      -0.546404       -14.8684 
  44   2.0000      -0.537463       -14.6251 
  45   2.0000      -0.536355       -14.5950 
  46   2.0000      -0.519678       -14.1411 
  47   2.0000      -0.511433       -13.9168 
  48   2.0000      -0.498573       -13.5669 
  49   2.0000      -0.495533       -13.4841 
  50   2.0000      -0.487602       -13.2683 
  51   2.0000      -0.478709       -13.0263 
  52   2.0000      -0.468206       -12.7405 
  53   2.0000      -0.464181       -12.6310 
  54   2.0000      -0.461618       -12.5613 
  55   2.0000      -0.448399       -12.2016 
  56   2.0000      -0.442330       -12.0364 
  57   2.0000      -0.439120       -11.9491 
  58   2.0000      -0.433974       -11.8090 
  59   2.0000      -0.426309       -11.6004 
  60   2.0000      -0.419777       -11.4227 
  61   2.0000      -0.416214       -11.3257 
  62   2.0000      -0.415597       -11.3090 
  63   2.0000      -0.349356        -9.5065 
  64   2.0000      -0.332919        -9.0592 
  65   2.0000      -0.329530        -8.9670 
  66   2.0000      -0.286497        -7.7960 
  67   0.0000       0.025543         0.6951 
  68   0.0000       0.072027         1.9599 
  69   0.0000       0.108677         2.9573 
  70   0.0000       0.115408         3.1404 
  71   0.0000       0.131658         3.5826 
  72   0.0000       0.142830         3.8866 
  73   0.0000       0.148665         4.0454 
  74   0.0000       0.158374         4.3096 
  75   0.0000       0.163561         4.4507 
  76   0.0000       0.174834         4.7575 
  77   0.0000       0.182287         4.9603 
  78   0.0000       0.192191         5.2298 
  79   0.0000       0.200842         5.4652 
  80   0.0000       0.203495         5.5374 
  81   0.0000       0.208217         5.6659 
  82   0.0000       0.208899         5.6844 
  83   0.0000       0.214541         5.8379 
  84   0.0000       0.219513         5.9733 
  85   0.0000       0.230765         6.2794 
  86   0.0000       0.233737         6.3603 
  87   0.0000       0.240679         6.5492 
  88   0.0000       0.248207         6.7540 
  89   0.0000       0.253769         6.9054 
  90   0.0000       0.257936         7.0188 
  91   0.0000       0.267456         7.2778 
  92   0.0000       0.275384         7.4936 
  93   0.0000       0.293944         7.9986 
  94   0.0000       0.296471         8.0674 
  95   0.0000       0.307555         8.3690 
  96   0.0000       0.318271         8.6606 
  97   0.0000       0.342070         9.3082 
  98   0.0000       0.351944         9.5769 
  99   0.0000       0.366424         9.9709 
 100   0.0000       0.378051        10.2873 
 101   0.0000       0.392336        10.6760 
 102   0.0000       0.417876        11.3710 
 103   0.0000       0.427215        11.6251 
 104   0.0000       0.436202        11.8697 
 105   0.0000       0.447513        12.1774 
 106   0.0000       0.465674        12.6716 
 107   0.0000       0.472159        12.8481 
 108   0.0000       0.490998        13.3607 
 109   0.0000       0.493641        13.4326 
 110   0.0000       0.501435        13.6447 
 111   0.0000       0.510077        13.8799 
 112   0.0000       0.518781        14.1167 
 113   0.0000       0.527672        14.3587 
 114   0.0000       0.537235        14.6189 
 115   0.0000       0.540099        14.6968 
 116   0.0000       0.547027        14.8854 
 117   0.0000       0.552113        15.0238 
 118   0.0000       0.567127        15.4323 
 119   0.0000       0.571715        15.5571 
 120   0.0000       0.574702        15.6384 
 121   0.0000       0.597730        16.2651 
 122   0.0000       0.604903        16.4603 
 123   0.0000       0.608359        16.5543 
 124   0.0000       0.615689        16.7538 
 125   0.0000       0.623710        16.9720 
 126   0.0000       0.637273        17.3411 
 127   0.0000       0.644882        17.5481 
 128   0.0000       0.653325        17.7779 
 129   0.0000       0.660290        17.9674 
 130   0.0000       0.667130        18.1535 
 131   0.0000       0.680926        18.5290 
 132   0.0000       0.692995        18.8573 
 133   0.0000       0.699321        19.0295 
 134   0.0000       0.704612        19.1735 
 135   0.0000       0.709732        19.3128 
 136   0.0000       0.715762        19.4769 
 137   0.0000       0.726375        19.7657 
 138   0.0000       0.728705        19.8291 
 139   0.0000       0.732776        19.9398 
 140   0.0000       0.738630        20.0992 
 141   0.0000       0.743908        20.2428 
 142   0.0000       0.750790        20.4300 
 143   0.0000       0.756994        20.5989 
 144   0.0000       0.757737        20.6191 
 145   0.0000       0.767583        20.8870 
 146   0.0000       0.773637        21.0517 
 147   0.0000       0.775079        21.0910 
 148   0.0000       0.779559        21.2129 
 149   0.0000       0.782099        21.2820 
 150   0.0000       0.786425        21.3997 
 151   0.0000       0.789592        21.4859 
 152   0.0000       0.797757        21.7081 
 153   0.0000       0.801593        21.8125 
 154   0.0000       0.804753        21.8985 
 155   0.0000       0.807963        21.9858 
 156   0.0000       0.815695        22.1962 
 157   0.0000       0.819412        22.2973 
 158   0.0000       0.826504        22.4903 
 159   0.0000       0.831219        22.6186 
 160   0.0000       0.832434        22.6517 
 161   0.0000       0.842366        22.9219 
 162   0.0000       0.844477        22.9794 
 163   0.0000       0.855126        23.2692 
 164   0.0000       0.857510        23.3340 
 165   0.0000       0.860083        23.4041 
 166   0.0000       0.863139        23.4872 
 167   0.0000       0.884667        24.0730 
 168   0.0000       0.888646        24.1813 
 169   0.0000       0.898453        24.4482 
 170   0.0000       0.914222        24.8773 
 171   0.0000       0.923772        25.1371 
 172   0.0000       0.933741        25.4084 
 173   0.0000       0.940305        25.5870 
 174   0.0000       0.949726        25.8433 
 175   0.0000       0.962766        26.1982 
 176   0.0000       0.980001        26.6672 
 177   0.0000       0.982549        26.7365 
 178   0.0000       1.019554        27.7435 
 179   0.0000       1.042542        28.3690 
 180   0.0000       1.057316        28.7710 
 181   0.0000       1.073443        29.2099 
 182   0.0000       1.096457        29.8361 
 183   0.0000       1.112563        30.2744 
 184   0.0000       1.128963        30.7207 
 185   0.0000       1.152536        31.3621 
 186   0.0000       1.165095        31.7038 
 187   0.0000       1.166660        31.7464 
 188   0.0000       1.190618        32.3984 
 189   0.0000       1.211803        32.9748 
 190   0.0000       1.215687        33.0805 
 191   0.0000       1.229078        33.4449 
 192   0.0000       1.241746        33.7896 
 193   0.0000       1.274804        34.6892 
 194   0.0000       1.281233        34.8641 
 195   0.0000       1.292127        35.1606 
 196   0.0000       1.320150        35.9231 
 197   0.0000       1.326204        36.0878 
 198   0.0000       1.341587        36.5064 
 199   0.0000       1.354740        36.8644 
 200   0.0000       1.358538        36.9677 
 201   0.0000       1.379991        37.5515 
 202   0.0000       1.410190        38.3732 
 203   0.0000       1.413438        38.4616 
 204   0.0000       1.456697        39.6388 
 205   0.0000       1.477003        40.1913 
 206   0.0000       1.487346        40.4727 
 207   0.0000       1.529997        41.6333 
 208   0.0000       1.537208        41.8296 
 209   0.0000       1.542852        41.9831 
 210   0.0000       1.571100        42.7518 
 211   0.0000       1.606325        43.7103 
 212   0.0000       1.618676        44.0464 
 213   0.0000       1.640338        44.6359 
 214   0.0000       1.660445        45.1830 
 215   0.0000       1.666070        45.3361 
 216   0.0000       1.670491        45.4564 
 217   0.0000       1.725608        46.9562 
 218   0.0000       1.754846        47.7518 
 219   0.0000       1.758964        47.8639 
 220   0.0000       1.776417        48.3388 
 221   0.0000       1.798762        48.9468 
 222   0.0000       1.806835        49.1665 
 223   0.0000       1.814579        49.3772 
 224   0.0000       1.822803        49.6010 
 225   0.0000       1.833446        49.8906 
 226   0.0000       1.841620        50.1130 
 227   0.0000       1.843444        50.1627 
 228   0.0000       1.851873        50.3920 
 229   0.0000       1.863487        50.7081 
 230   0.0000       1.871440        50.9245 
 231   0.0000       1.875928        51.0466 
 232   0.0000       1.876120        51.0518 
 233   0.0000       1.891019        51.4572 
 234   0.0000       1.891890        51.4809 
 235   0.0000       1.902614        51.7728 
 236   0.0000       1.920747        52.2662 
 237   0.0000       1.922019        52.3008 
 238   0.0000       1.929671        52.5090 
 239   0.0000       1.937385        52.7189 
 240   0.0000       1.948077        53.0099 
 241   0.0000       1.959285        53.3148 
 242   0.0000       1.970777        53.6276 
 243   0.0000       1.979128        53.8548 
 244   0.0000       1.990393        54.1613 
 245   0.0000       2.000721        54.4424 
 246   0.0000       2.012093        54.7518 
 247   0.0000       2.018651        54.9303 
 248   0.0000       2.023722        55.0683 
 249   0.0000       2.035117        55.3784 
 250   0.0000       2.049119        55.7594 
 251   0.0000       2.059489        56.0415 
 252   0.0000       2.062334        56.1190 
 253   0.0000       2.066664        56.2368 
 254   0.0000       2.089392        56.8553 
 255   0.0000       2.100044        57.1451 
 256   0.0000       2.103127        57.2290 
 257   0.0000       2.128319        57.9145 
 258   0.0000       2.143324        58.3228 
 259   0.0000       2.154300        58.6215 
 260   0.0000       2.157904        58.7196 
 261   0.0000       2.187773        59.5323 
 262   0.0000       2.191709        59.6394 
 263   0.0000       2.210927        60.1624 
 264   0.0000       2.236725        60.8644 
 265   0.0000       2.255437        61.3736 
 266   0.0000       2.261314        61.5335 
 267   0.0000       2.274191        61.8839 
 268   0.0000       2.289385        62.2973 
 269   0.0000       2.297858        62.5279 
 270   0.0000       2.299459        62.5715 
 271   0.0000       2.333415        63.4954 
 272   0.0000       2.351417        63.9853 
 273   0.0000       2.375177        64.6319 
 274   0.0000       2.395464        65.1839 
 275   0.0000       2.422645        65.9235 
 276   0.0000       2.436502        66.3006 
 277   0.0000       2.447668        66.6044 
 278   0.0000       2.456408        66.8423 
 279   0.0000       2.464773        67.0699 
 280   0.0000       2.481524        67.5257 
 281   0.0000       2.500377        68.0387 
 282   0.0000       2.519615        68.5622 
 283   0.0000       2.536310        69.0165 
 284   0.0000       2.547934        69.3328 
 285   0.0000       2.559214        69.6398 
 286   0.0000       2.577071        70.1257 
 287   0.0000       2.594034        70.5872 
 288   0.0000       2.608848        70.9904 
 289   0.0000       2.637271        71.7638 
 290   0.0000       2.648969        72.0821 
 291   0.0000       2.652901        72.1891 
 292   0.0000       2.685478        73.0756 
 293   0.0000       2.702788        73.5466 
 294   0.0000       2.714501        73.8653 
 295   0.0000       2.729078        74.2620 
 296   0.0000       2.757910        75.0465 
 297   0.0000       2.772150        75.4340 
 298   0.0000       2.789531        75.9070 
 299   0.0000       2.824712        76.8643 
 300   0.0000       2.841263        77.3147 
 301   0.0000       2.857667        77.7611 
 302   0.0000       2.859141        77.8012 
 303   0.0000       2.913848        79.2898 
 304   0.0000       2.963467        80.6400 
 305   0.0000       2.975867        80.9775 
 306   0.0000       2.991549        81.4042 
 307   0.0000       2.997338        81.5617 
 308   0.0000       3.022129        82.2363 
 309   0.0000       3.033038        82.5332 
 310   0.0000       3.038020        82.6687 
 311   0.0000       3.047428        82.9247 
 312   0.0000       3.089277        84.0635 
 313   0.0000       3.108420        84.5844 
 314   0.0000       3.123331        84.9902 
 315   0.0000       3.154712        85.8441 
 316   0.0000       3.210766        87.3694 
 317   0.0000       3.217598        87.5553 
 318   0.0000       3.263450        88.8030 
 319   0.0000       3.285920        89.4144 
 320   0.0000       3.363898        91.5363 
 321   0.0000       3.478764        94.6620 

                    ********************************
                    * MULLIKEN POPULATION ANALYSIS *
                    ********************************

-----------------------
MULLIKEN ATOMIC CHARGES
-----------------------
   0 S :    0.113981
   1 C :   -0.125698
   2 C :   -0.107929
   3 C :    0.011034
   4 C :   -0.151221
   5 H :    0.020160
   6 C :    0.119492
   7 H :   -0.003155
   8 H :    0.030826
   9 C :   -0.046002
  10 H :    0.028196
  11 H :    0.026049
  12 C :   -0.124345
  13 H :    0.051428
  14 H :    0.030897
  15 H :    0.048447
  16 S :    0.101623
  17 C :   -0.083633
  18 C :   -0.025479
  19 C :   -0.014959
  20 C :   -0.166021
  21 H :    0.005303
  22 C :    0.064310
  23 H :    0.044866
  24 H :    0.009469
  25 C :   -0.086554
  26 H :    0.018528
  27 H :    0.029739
  28 C :   -0.070817
  29 H :    0.036675
  30 H :    0.059585
  31 H :    0.045980
  32 H :    0.059406
  33 H :    0.049819
Sum of atomic charges:    0.0000000

--------------------------------
MULLIKEN REDUCED ORBITAL CHARGES
--------------------------------
  0 S s       :     5.840997  s :     5.840997
      pz      :     3.282919  p :     9.936767
      px      :     3.465233
      py      :     3.188615
      dz2     :     0.027692  d :     0.108255
      dxz     :     0.019703
      dyz     :     0.016483
      dx2y2   :     0.029314
      dxy     :     0.015063
  1 C s       :     3.173807  s :     3.173807
      pz      :     1.049506  p :     2.918159
      px      :     1.041937
      py      :     0.826716
      dz2     :     0.006936  d :     0.033733
      dxz     :     0.005111
      dyz     :     0.006941
      dx2y2   :     0.008029
      dxy     :     0.006715
  2 C s       :     3.088888  s :     3.088888
      pz      :     0.982234  p :     2.976578
      px      :     0.994804
      py      :     0.999539
      dz2     :     0.008911  d :     0.042463
      dxz     :     0.005244
      dyz     :     0.011532
      dx2y2   :     0.007723
      dxy     :     0.009052
  3 C s       :     3.200701  s :     3.200701
      pz      :     0.879920  p :     2.756910
      px      :     0.983145
      py      :     0.893846
      dz2     :     0.005933  d :     0.031354
      dxz     :     0.004161
      dyz     :     0.008470
      dx2y2   :     0.006013
      dxy     :     0.006778
  4 C s       :     3.065307  s :     3.065307
      pz      :     0.984003  p :     3.042847
      px      :     1.046376
      py      :     1.012468
      dz2     :     0.010139  d :     0.043067
      dxz     :     0.006708
      dyz     :     0.009951
      dx2y2   :     0.007940
      dxy     :     0.008329
  5 H s       :     0.955438  s :     0.955438
      pz      :     0.013324  p :     0.024402
      px      :     0.006942
      py      :     0.004136
  6 C s       :     2.925974  s :     2.925974
      pz      :     0.972477  p :     2.918980
      px      :     1.010579
      py      :     0.935924
      dz2     :     0.007977  d :     0.035554
      dxz     :     0.005328
      dyz     :     0.007551
      dx2y2   :     0.008230
      dxy     :     0.006468
  7 H s       :     0.977616  s :     0.977616
      pz      :     0.011578  p :     0.025540
      px      :     0.007229
      py      :     0.006733
  8 H s       :     0.945758  s :     0.945758
      pz      :     0.004999  p :     0.023415
      px      :     0.013007
      py      :     0.005410
  9 C s       :     3.025884  s :     3.025884
      pz      :     0.947063  p :     2.984189
      px      :     1.021238
      py      :     1.015888
      dz2     :     0.010234  d :     0.035929
      dxz     :     0.006638
      dyz     :     0.005815
      dx2y2   :     0.011146
      dxy     :     0.002097
 10 H s       :     0.947723  s :     0.947723
      pz      :     0.005193  p :     0.024081
      px      :     0.005030
      py      :     0.013857
 11 H s       :     0.949623  s :     0.949623
      pz      :     0.004058  p :     0.024328
      px      :     0.014589
      py      :     0.005680
 12 C s       :     3.071720  s :     3.071720
      pz      :     0.979423  p :     3.025047
      px      :     1.003608
      py      :     1.042016
      dz2     :     0.007924  d :     0.027578
      dxz     :     0.003825
      dyz     :     0.004548
      dx2y2   :     0.009671
      dxy     :     0.001610
 13 H s       :     0.924296  s :     0.924296
      pz      :     0.004511  p :     0.024276
      px      :     0.005604
      py      :     0.014161
 14 H s       :     0.945790  s :     0.945790
      pz      :     0.004125  p :     0.023313
      px      :     0.014074
      py      :     0.005114
 15 H s       :     0.931145  s :     0.931145
      pz      :     0.010022  p :     0.020408
      px      :     0.004977
      py      :     0.005409
 16 S s       :     5.846022  s :     5.846022
      pz      :     3.474204  p :     9.948651
      px      :     3.387517
      py      :     3.086930
      dz2     :     0.018729  d :     0.103704
      dxz     :     0.019600
      dyz     :     0.015162
      dx2y2   :     0.015582
      dxy     :     0.034633
 17 C s       :     3.145143  s :     3.145143
      pz      :     0.990626  p :     2.902526
      px      :     0.955193
      py      :     0.956707
      dz2     :     0.004423  d :     0.035964
      dxz     :     0.008547
      dyz     :     0.005176
      dx2y2   :     0.008863
      dxy     :     0.008955
 18 C s       :     3.175145  s :     3.175145
      pz      :     0.981064  p :     2.813592
      px      :     0.883212
      py      :     0.949317
      dz2     :     0.004421  d :     0.036741
      dxz     :     0.005999
      dyz     :     0.006800
      dx2y2   :     0.009370
      dxy     :     0.010151
 19 C s       :     3.059621  s :     3.059621
      pz      :     0.984117  p :     2.909716
      px      :     0.946071
      py      :     0.979527
      dz2     :     0.006997  d :     0.045622
      dxz     :     0.008220
      dyz     :     0.007814
      dx2y2   :     0.012060
      dxy     :     0.010531
 20 C s       :     3.062799  s :     3.062799
      pz      :     1.110737  p :     3.059842
      px      :     0.993610
      py      :     0.955495
      dz2     :     0.005710  d :     0.043381
      dxz     :     0.007574
      dyz     :     0.006504
      dx2y2   :     0.009107
      dxy     :     0.014486
 21 H s       :     0.969518  s :     0.969518
      pz      :     0.007683  p :     0.025179
      px      :     0.011276
      py      :     0.006220
 22 C s       :     2.954925  s :     2.954925
      pz      :     1.016959  p :     2.945782
      px      :     0.937913
      py      :     0.990911
      dz2     :     0.006330  d :     0.034982
      dxz     :     0.004485
      dyz     :     0.007451
      dx2y2   :     0.007464
      dxy     :     0.009253
 23 H s       :     0.933100  s :     0.933100
      pz      :     0.012349  p :     0.022034
      px      :     0.003625
      py      :     0.006060
 24 H s       :     0.965466  s :     0.965466
      pz      :     0.009182  p :     0.025065
      px      :     0.004552
      py      :     0.011331
 25 C s       :     3.057417  s :     3.057417
      pz      :     1.009927  p :     2.994483
      px      :     0.958118
      py      :     1.026439
      dz2     :     0.007520  d :     0.034653
      dxz     :     0.006105
      dyz     :     0.008312
      dx2y2   :     0.004385
      dxy     :     0.008332
 26 H s       :     0.957890  s :     0.957890
      pz      :     0.008563  p :     0.023582
      px      :     0.005359
      py      :     0.009661
 27 H s       :     0.948156  s :     0.948156
      pz      :     0.004561  p :     0.022106
      px      :     0.008082
      py      :     0.009463
 28 C s       :     3.059669  s :     3.059669
      pz      :     0.975310  p :     2.985182
      px      :     0.996176
      py      :     1.013696
      dz2     :     0.006253  d :     0.025966
      dxz     :     0.003180
      dyz     :     0.006517
      dx2y2   :     0.005547
      dxy     :     0.004468
 29 H s       :     0.939416  s :     0.939416
      pz      :     0.008217  p :     0.023908
      px      :     0.006700
      py      :     0.008992
 30 H s       :     0.918459  s :     0.918459
      pz      :     0.004107  p :     0.021956
      px      :     0.006211
      py      :     0.011638
 31 H s       :     0.931724  s :     0.931724
      pz      :     0.004622  p :     0.022297
      px      :     0.013606
      py      :     0.004069
 32 H s       :     0.917514  s :     0.917514
      pz      :     0.008627  p :     0.023080
      px      :     0.009960
      py      :     0.004493
 33 H s       :     0.926028  s :     0.926028
      pz      :     0.007270  p :     0.024153
      px      :     0.003657
      py      :     0.013225


                     *******************************
                     * LOEWDIN POPULATION ANALYSIS *
                     *******************************

----------------------
LOEWDIN ATOMIC CHARGES
----------------------
   0 S :    0.410510
   1 C :   -0.210838
   2 C :   -0.058062
   3 C :   -0.064606
   4 C :   -0.191928
   5 H :    0.031923
   6 C :   -0.024248
   7 H :    0.020543
   8 H :    0.035754
   9 C :   -0.030597
  10 H :    0.024937
  11 H :    0.017184
  12 C :   -0.073737
  13 H :    0.022200
  14 H :    0.017668
  15 H :    0.035260
  16 S :    0.393249
  17 C :   -0.175351
  18 C :   -0.069663
  19 C :   -0.056198
  20 C :   -0.190052
  21 H :    0.027330
  22 C :   -0.036603
  23 H :    0.044745
  24 H :    0.022284
  25 C :   -0.043643
  26 H :    0.012710
  27 H :    0.029206
  28 C :   -0.067548
  29 H :    0.025066
  30 H :    0.032943
  31 H :    0.032168
  32 H :    0.031882
  33 H :    0.025511

-------------------------------
LOEWDIN REDUCED ORBITAL CHARGES
-------------------------------
  0 S s       :     5.502360  s :     5.502360
      pz      :     3.289197  p :     9.953042
      px      :     3.446510
      py      :     3.217335
      dz2     :     0.034959  d :     0.134088
      dxz     :     0.025690
      dyz     :     0.019285
      dx2y2   :     0.036919
      dxy     :     0.017235
  1 C s       :     2.937024  s :     2.937024
      pz      :     1.103624  p :     3.193579
      px      :     1.093370
      py      :     0.996585
      dz2     :     0.015395  d :     0.080235
      dxz     :     0.011564
      dyz     :     0.018198
      dx2y2   :     0.019406
      dxy     :     0.015672
  2 C s       :     2.868488  s :     2.868488
      pz      :     1.034594  p :     3.085130
      px      :     1.005915
      py      :     1.044620
      dz2     :     0.020895  d :     0.104445
      dxz     :     0.012953
      dyz     :     0.031985
      dx2y2   :     0.018384
      dxy     :     0.020229
  3 C s       :     2.881812  s :     2.881812
      pz      :     1.034710  p :     3.100433
      px      :     1.033270
      py      :     1.032452
      dz2     :     0.015115  d :     0.082361
      dxz     :     0.009676
      dyz     :     0.024309
      dx2y2   :     0.016818
      dxy     :     0.016442
  4 C s       :     2.917065  s :     2.917065
      pz      :     1.027194  p :     3.172885
      px      :     1.056267
      py      :     1.089424
      dz2     :     0.022556  d :     0.101978
      dxz     :     0.014287
      dyz     :     0.025697
      dx2y2   :     0.021026
      dxy     :     0.018413
  5 H s       :     0.896383  s :     0.896383
      pz      :     0.037543  p :     0.071694
      px      :     0.020619
      py      :     0.013532
  6 C s       :     2.811289  s :     2.811289
      pz      :     1.045193  p :     3.122372
      px      :     1.064178
      py      :     1.013000
      dz2     :     0.020928  d :     0.090586
      dxz     :     0.014292
      dyz     :     0.017995
      dx2y2   :     0.021965
      dxy     :     0.015406
  7 H s       :     0.901895  s :     0.901895
      pz      :     0.034777  p :     0.077562
      px      :     0.021279
      py      :     0.021506
  8 H s       :     0.897041  s :     0.897041
      pz      :     0.014009  p :     0.067206
      px      :     0.036359
      py      :     0.016838
  9 C s       :     2.826262  s :     2.826262
      pz      :     0.998524  p :     3.117652
      px      :     1.060695
      py      :     1.058433
      dz2     :     0.024176  d :     0.086684
      dxz     :     0.016314
      dyz     :     0.013924
      dx2y2   :     0.026907
      dxy     :     0.005363
 10 H s       :     0.904050  s :     0.904050
      pz      :     0.016886  p :     0.071013
      px      :     0.014501
      py      :     0.039627
 11 H s       :     0.907560  s :     0.907560
      pz      :     0.015377  p :     0.075256
      px      :     0.042769
      py      :     0.017110
 12 C s       :     2.854705  s :     2.854705
      pz      :     1.021511  p :     3.151280
      px      :     1.057978
      py      :     1.071791
      dz2     :     0.019692  d :     0.067752
      dxz     :     0.009220
      dyz     :     0.011176
      dx2y2   :     0.023320
      dxy     :     0.004343
 13 H s       :     0.907396  s :     0.907396
      pz      :     0.014034  p :     0.070404
      px      :     0.014980
      py      :     0.041390
 14 H s       :     0.915441  s :     0.915441
      pz      :     0.012627  p :     0.066891
      px      :     0.040281
      py      :     0.013982
 15 H s       :     0.908668  s :     0.908668
      pz      :     0.028843  p :     0.056071
      px      :     0.012790
      py      :     0.014439
 16 S s       :     5.516680  s :     5.516680
      pz      :     3.454494  p :     9.962745
      px      :     3.410918
      py      :     3.097334
      dz2     :     0.022172  d :     0.127326
      dxz     :     0.023583
      dyz     :     0.019256
      dx2y2   :     0.018409
      dxy     :     0.043905
 17 C s       :     2.923680  s :     2.923680
      pz      :     1.043520  p :     3.166946
      px      :     1.056171
      py      :     1.067255
      dz2     :     0.009820  d :     0.084725
      dxz     :     0.019080
      dyz     :     0.010884
      dx2y2   :     0.021306
      dxy     :     0.023634
 18 C s       :     2.849867  s :     2.849867
      pz      :     1.025177  p :     3.122314
      px      :     1.054610
      py      :     1.042526
      dz2     :     0.010084  d :     0.097482
      dxz     :     0.014670
      dyz     :     0.017177
      dx2y2   :     0.026398
      dxy     :     0.029153
 19 C s       :     2.847085  s :     2.847085
      pz      :     1.010784  p :     3.094050
      px      :     1.044103
      py      :     1.039163
      dz2     :     0.015430  d :     0.115063
      dxz     :     0.019327
      dyz     :     0.018802
      dx2y2   :     0.033373
      dxy     :     0.028130
 20 C s       :     2.906411  s :     2.906411
      pz      :     1.096045  p :     3.179254
      px      :     1.067293
      py      :     1.015916
      dz2     :     0.012265  d :     0.104386
      dxz     :     0.017863
      dyz     :     0.015398
      dx2y2   :     0.023576
      dxy     :     0.035285
 21 H s       :     0.897942  s :     0.897942
      pz      :     0.023135  p :     0.074728
      px      :     0.031881
      py      :     0.019712
 22 C s       :     2.826022  s :     2.826022
      pz      :     1.069255  p :     3.123248
      px      :     1.011777
      py      :     1.042216
      dz2     :     0.016351  d :     0.087334
      dxz     :     0.009464
      dyz     :     0.018860
      dx2y2   :     0.018717
      dxy     :     0.023941
 23 H s       :     0.893136  s :     0.893136
      pz      :     0.033339  p :     0.062118
      px      :     0.011631
      py      :     0.017148
 24 H s       :     0.902001  s :     0.902001
      pz      :     0.025076  p :     0.075715
      px      :     0.016616
      py      :     0.034023
 25 C s       :     2.845868  s :     2.845868
      pz      :     1.037557  p :     3.116089
      px      :     1.007400
      py      :     1.071131
      dz2     :     0.018468  d :     0.081686
      dxz     :     0.012153
      dyz     :     0.019742
      dx2y2   :     0.011000
      dxy     :     0.020323
 26 H s       :     0.914058  s :     0.914058
      pz      :     0.027803  p :     0.073231
      px      :     0.017592
      py      :     0.027837
 27 H s       :     0.907175  s :     0.907175
      pz      :     0.013558  p :     0.063619
      px      :     0.024579
      py      :     0.025482
 28 C s       :     2.857003  s :     2.857003
      pz      :     1.029646  p :     3.146158
      px      :     1.054656
      py      :     1.061856
      dz2     :     0.015946  d :     0.064387
      dxz     :     0.007395
      dyz     :     0.015488
      dx2y2   :     0.014477
      dxy     :     0.011081
 29 H s       :     0.906785  s :     0.906785
      pz      :     0.024896  p :     0.068149
      px      :     0.017455
      py      :     0.025798
 30 H s       :     0.903731  s :     0.903731
      pz      :     0.012612  p :     0.063326
      px      :     0.017415
      py      :     0.033298
 31 H s       :     0.905150  s :     0.905150
      pz      :     0.013398  p :     0.062682
      px      :     0.038516
      py      :     0.010769
 32 H s       :     0.895460  s :     0.895460
      pz      :     0.026215  p :     0.072658
      px      :     0.030068
      py      :     0.016375
 33 H s       :     0.897943  s :     0.897943
      pz      :     0.023638  p :     0.076545
      px      :     0.013433
      py      :     0.039475


                      *****************************
                      * MAYER POPULATION ANALYSIS *
                      *****************************

  NA   - Mulliken gross atomic population
  ZA   - Total nuclear charge
  QA   - Mulliken gross atomic charge
  VA   - Mayer's total valence
  BVA  - Mayer's bonded valence
  FA   - Mayer's free valence

  ATOM       NA         ZA         QA         VA         BVA        FA
  0 S     15.8860    16.0000     0.1140     2.4977     2.4977     0.0000
  1 C      6.1257     6.0000    -0.1257     3.8390     3.8390    -0.0000
  2 C      6.1079     6.0000    -0.1079     4.0368     4.0368     0.0000
  3 C      5.9890     6.0000     0.0110     3.9071     3.9071    -0.0000
  4 C      6.1512     6.0000    -0.1512     3.9218     3.9218    -0.0000
  5 H      0.9798     1.0000     0.0202     1.0148     1.0148    -0.0000
  6 C      5.8805     6.0000     0.1195     3.9747     3.9747     0.0000
  7 H      1.0032     1.0000    -0.0032     0.9958     0.9958    -0.0000
  8 H      0.9692     1.0000     0.0308     0.9839     0.9839     0.0000
  9 C      6.0460     6.0000    -0.0460     4.0892     4.0892    -0.0000
 10 H      0.9718     1.0000     0.0282     0.9759     0.9759     0.0000
 11 H      0.9740     1.0000     0.0260     0.9819     0.9819     0.0000
 12 C      6.1243     6.0000    -0.1243     4.0095     4.0095    -0.0000
 13 H      0.9486     1.0000     0.0514     0.9892     0.9892    -0.0000
 14 H      0.9691     1.0000     0.0309     0.9859     0.9859     0.0000
 15 H      0.9516     1.0000     0.0484     0.9824     0.9824     0.0000
 16 S     15.8984    16.0000     0.1016     2.4749     2.4749     0.0000
 17 C      6.0836     6.0000    -0.0836     3.8494     3.8494     0.0000
 18 C      6.0255     6.0000    -0.0255     3.9468     3.9468     0.0000
 19 C      6.0150     6.0000    -0.0150     3.9929     3.9929    -0.0000
 20 C      6.1660     6.0000    -0.1660     3.9385     3.9385    -0.0000
 21 H      0.9947     1.0000     0.0053     0.9979     0.9979    -0.0000
 22 C      5.9357     6.0000     0.0643     3.9594     3.9594     0.0000
 23 H      0.9551     1.0000     0.0449     0.9777     0.9777     0.0000
 24 H      0.9905     1.0000     0.0095     1.0075     1.0075     0.0000
 25 C      6.0866     6.0000    -0.0866     4.0665     4.0665     0.0000
 26 H      0.9815     1.0000     0.0185     0.9783     0.9783    -0.0000
 27 H      0.9703     1.0000     0.0297     0.9787     0.9787     0.0000
 28 C      6.0708     6.0000    -0.0708     3.9864     3.9864    -0.0000
 29 H      0.9633     1.0000     0.0367     0.9906     0.9906     0.0000
 30 H      0.9404     1.0000     0.0596     0.9877     0.9877    -0.0000
 31 H      0.9540     1.0000     0.0460     0.9846     0.9846    -0.0000
 32 H      0.9406     1.0000     0.0594     1.0004     1.0004    -0.0000
 33 H      0.9502     1.0000     0.0498     0.9955     0.9955    -0.0000

  Mayer bond orders larger than 0.100000
B(  0-S ,  1-C ) :   1.1381 B(  0-S ,  4-C ) :   1.1598 B(  1-C ,  2-C ) :   1.6138 
B(  1-C , 32-H ) :   0.9607 B(  2-C ,  3-C ) :   1.2425 B(  2-C ,  6-C ) :   1.0317 
B(  3-C ,  4-C ) :   1.5343 B(  3-C ,  5-H ) :   0.9842 B(  4-C , 20-C ) :   1.0700 
B(  6-C ,  7-H ) :   0.9331 B(  6-C ,  8-H ) :   0.9385 B(  6-C ,  9-C ) :   1.0711 
B(  9-C , 10-H ) :   0.9582 B(  9-C , 11-H ) :   0.9586 B(  9-C , 12-C ) :   1.0753 
B( 12-C , 13-H ) :   0.9688 B( 12-C , 14-H ) :   0.9712 B( 12-C , 15-H ) :   0.9703 
B( 16-S , 17-C ) :   1.1526 B( 16-S , 20-C ) :   1.1336 B( 17-C , 18-C ) :   1.6120 
B( 17-C , 20-C ) :   0.1004 B( 17-C , 33-H ) :   0.9696 B( 18-C , 19-C ) :   1.2283 
B( 18-C , 21-H ) :   0.9994 B( 19-C , 20-C ) :   1.5781 B( 19-C , 22-C ) :   1.0488 
B( 22-C , 23-H ) :   0.9303 B( 22-C , 24-H ) :   0.9258 B( 22-C , 25-C ) :   1.0622 
B( 25-C , 26-H ) :   0.9571 B( 25-C , 27-H ) :   0.9585 B( 25-C , 28-C ) :   1.0643 
B( 28-C , 29-H ) :   0.9793 B( 28-C , 30-H ) :   0.9760 B( 28-C , 31-H ) :   0.9761 


-------
TIMINGS
-------

Total SCF time: 0 days 0 hours 0 min 20 sec 

Total time                  ....      20.165 sec
Sum of individual times     ....      19.311 sec  ( 95.8%)

Fock matrix formation       ....      17.648 sec  ( 87.5%)
  XC integration            ....       1.485 sec  (  8.4% of F)
    Basis function eval.    ....       0.142 sec  (  9.5% of XC)
    Density eval.           ....       0.105 sec  (  7.1% of XC)
    XC-Functional eval.     ....       0.117 sec  (  7.9% of XC)
    XC-Potential eval.      ....       0.118 sec  (  7.9% of XC)
Diagonalization             ....       0.138 sec  (  0.7%)
Density matrix formation    ....       0.022 sec  (  0.1%)
Population analysis         ....       0.055 sec  (  0.3%)
Initial guess               ....       0.171 sec  (  0.8%)
Orbital Transformation      ....       0.000 sec  (  0.0%)
Orbital Orthonormalization  ....       0.000 sec  (  0.0%)
DIIS solution               ....       0.149 sec  (  0.7%)
SOSCF solution              ....       0.125 sec  (  0.6%)
Grid generation             ....       1.003 sec  (  5.0%)


-------------------------------------------------------------------------------
                          DFT DISPERSION CORRECTION                            
                                                                               
                              DFTD3 V3.1  Rev 1                                
                              USING zero damping                               
-------------------------------------------------------------------------------
The omegaB97X-D3 functional is recognized. Fit by Chai et al.
Active option DFTDOPT                   ...         3   

molecular C6(AA) [au] = 14206.426205 


            DFT-D V3
 parameters
 s6 scaling factor         :     1.0000 
 rs6 scaling factor        :     1.2810 
 s8 scaling factor         :     1.0000 
 rs8 scaling factor        :     1.0940 
 Damping factor alpha6     :    14.0000 
 Damping factor alpha8     :    16.0000 
 ad hoc parameters k1-k3   :    16.0000     1.3333    -4.0000 

 Edisp/kcal,au: -9.104071283373  -0.014508259538 
 E6   /kcal   :  -4.207904877 
 E8   /kcal   :  -4.896166406 
 % E8         :  53.779965622 

-------------------------   ----------------
Dispersion correction           -0.014508260
-------------------------   ----------------


-------------------------   --------------------
FINAL SINGLE POINT ENERGY     -1339.879363773361
-------------------------   --------------------


                            ***************************************
                            *     ORCA property calculations      *
                            ***************************************

                                    ---------------------
                                    Active property flags
                                    ---------------------
   (+) Dipole Moment


------------------------------------------------------------------------------
                       ORCA ELECTRIC PROPERTIES CALCULATION
------------------------------------------------------------------------------

Dipole Moment Calculation                       ... on
Quadrupole Moment Calculation                   ... off
Polarizability Calculation                      ... off
GBWName                                         ... config_4292.gbw
Electron density file                           ... config_4292.scfp
The origin for moment calculation is the CENTER OF MASS  = (-213.099054, 117.359020 -131.261224)

-------------
DIPOLE MOMENT
-------------
                                X             Y             Z
Electronic contribution:     14.50272      17.19128      -7.57373
Nuclear contribution   :    -14.79888     -17.61186       7.93695
                        -----------------------------------------
Total Dipole Moment    :     -0.29616      -0.42058       0.36322
                        -----------------------------------------
Magnitude (a.u.)       :      0.62970
Magnitude (Debye)      :      1.60058



--------------------
Rotational spectrum 
--------------------
 
Rotational constants in cm-1:     0.018282     0.008650     0.007618 
Rotational constants in MHz :   548.076032   259.316824   228.387192 

 Dipole components along the rotational axes: 
x,y,z [a.u.] :     0.135075    -0.540958    -0.292654 
x,y,z [Debye]:     0.343333    -1.375006    -0.743868 

 

Timings for individual modules:

Sum of individual times         ...       21.347 sec (=   0.356 min)
GTO integral calculation        ...        0.800 sec (=   0.013 min)   3.7 %
SCF iterations                  ...       20.548 sec (=   0.342 min)  96.3 %
                             ****ORCA TERMINATED NORMALLY****
TOTAL RUN TIME: 0 days 0 hours 0 minutes 22 seconds 23 msec
