
                                 *****************
                                 * O   R   C   A *
                                 *****************

           --- An Ab Initio, DFT and Semiempirical electronic structure package ---

                  #######################################################
                  #                        -***-                        #
                  #          Department of theory and spectroscopy      #
                  #               Directorship: Frank Neese             #
                  #        Max Planck Institute fuer Kohlenforschung    #
                  #                Kaiser Wilhelm Platz 1               #
                  #                 D-45470 Muelheim/Ruhr               #
                  #                      Germany                        #
                  #                                                     #
                  #                  All rights reserved                #
                  #                        -***-                        #
                  #######################################################


                         Program Version 4.2.1 -  RELEASE  -


 With contributions from (in alphabetic order):
   Daniel Aravena         : Magnetic Suceptibility
   Michael Atanasov       : Ab Initio Ligand Field Theory (pilot matlab implementation)
   Alexander A. Auer      : GIAO ZORA, VPT2
   Ute Becker             : Parallelization
   Giovanni Bistoni       : ED, misc. LED, open-shell LED, HFLD
   Martin Brehm           : Molecular dynamics
   Dmytro Bykov           : SCF Hessian
   Vijay G. Chilkuri      : MRCI spin determinant printing, contributions to CSF-ICE
   Dipayan Datta          : RHF DLPNO-CCSD density
   Achintya Kumar Dutta   : EOM-CC, STEOM-CC
   Dmitry Ganyushin       : Spin-Orbit,Spin-Spin,Magnetic field MRCI
   Miquel Garcia          : C-PCM Hessian, Gaussian charge scheme
   Yang Guo               : DLPNO-NEVPT2, CIM, IAO-localization
   Andreas Hansen         : Spin unrestricted coupled pair/coupled cluster methods
   Benjamin Helmich-Paris : CASSCF linear response (MC-RPA)
   Lee Huntington         : MR-EOM, pCC
   Robert Izsak           : Overlap fitted RIJCOSX, COSX-SCS-MP3, EOM
   Christian Kollmar      : KDIIS, OOCD, Brueckner-CCSD(T), CCSD density
   Simone Kossmann        : Meta GGA functionals, TD-DFT gradient, OOMP2, MP2 Hessian
   Martin Krupicka        : AUTO-CI
   Lucas Lang             : DCDCAS
   Dagmar Lenk            : GEPOL surface, SMD
   Dimitrios Liakos       : Extrapolation schemes; Compound Job, initial MDCI parallelization
   Dimitrios Manganas     : Further ROCIS development; embedding schemes
   Dimitrios Pantazis     : SARC Basis sets
   Taras Petrenko         : DFT Hessian,TD-DFT gradient, ASA, ECA, R-Raman, ABS, FL, XAS/XES, NRVS
   Peter Pinski           : DLPNO-MP2, DLPNO-MP2 Gradient
   Christoph Reimann      : Effective Core Potentials
   Marius Retegan         : Local ZFS, SOC
   Christoph Riplinger    : Optimizer, TS searches, QM/MM, DLPNO-CCSD(T), (RO)-DLPNO pert. Triples
   Tobias Risthaus        : Range-separated hybrids, TD-DFT gradient, RPA, STAB
   Michael Roemelt        : Original ROCIS implementation
   Masaaki Saitow         : Open-shell DLPNO-CCSD energy and density
   Barbara Sandhoefer     : DKH picture change effects
   Avijit Sen             : IP-ROCIS
   Kantharuban Sivalingam : CASSCF convergence, NEVPT2, FIC-MRCI
   Bernardo de Souza      : ESD, SOC TD-DFT
   Georgi Stoychev        : AutoAux, RI-MP2 NMR
   Willem Van den Heuvel  : Paramagnetic NMR
   Boris Wezisla          : Elementary symmetry handling
   Frank Wennmohs         : Technical directorship


 We gratefully acknowledge several colleagues who have allowed us to
 interface, adapt or use parts of their codes:
   Stefan Grimme, W. Hujo, H. Kruse,             : VdW corrections, initial TS optimization,
                  C. Bannwarth                     DFT functionals, gCP, sTDA/sTD-DF
   Ed Valeev, F. Pavosevic, A. Kumar             : LibInt (2-el integral package), F12 methods
   Garnet Chan, S. Sharma, J. Yang, R. Olivares  : DMRG
   Ulf Ekstrom                                   : XCFun DFT Library
   Mihaly Kallay                                 : mrcc  (arbitrary order and MRCC methods)
   Andreas Klamt, Michael Diedenhofen            : otool_cosmo (COSMO solvation model)
   Jiri Pittner, Ondrej Demel                    : Mk-CCSD
   Frank Weinhold                                : gennbo (NPA and NBO analysis)
   Christopher J. Cramer and Donald G. Truhlar   : smd solvation model
   Lars Goerigk                                  : TD-DFT with DH, B97 family of functionals
   V. Asgeirsson, H. Jonsson                     : NEB implementation
   FAccTs GmbH                                   : IRC, NEB, NEB-TS, Multilevel, MM, QM/MM, CI optimization
   S Lehtola, MJT Oliveira, MAL Marques          : LibXC Library


 Your calculation uses the libint2 library for the computation of 2-el integrals
 For citations please refer to: http://libint.valeyev.net

 Your ORCA version has been built with support for libXC version: 4.2.3
 For citations please refer to: https://tddft.org/programs/libxc/

 This ORCA versions uses:
   CBLAS   interface :  Fast vector & matrix operations
   LAPACKE interface :  Fast linear algebra routines
   SCALAPACK package :  Parallel linear algebra routines


Your calculation utilizes the atom-pairwise dispersion correction
with the zero-damping scheme (D30)
Cite in your paper:
S.Grimme, J.Antony, S.Ehrlich and H.Krieg, J.Chem.Phys., 132, (2010), 154104 
   

XCFun DFT library Copyright 2009-2010 Ulf Ekstrom and contributors.
See http://admol.org/xcfun for more information. This is free soft-
ware; see the source code for copying conditions. There is ABSOLUTELY
NO WARRANTY; not even for MERCHANTABILITY or FITNESS FOR A PARTICULAR
PURPOSE. For details see the documentation. Scientific users of this 
library should cite U. Ekstrom, L. Visscher, R. Bast, A. J. Thorvald-
sen and K. Ruud; J.Chem.Theor.Comp. 2010, DOI: 10.1021/ct100117s
XCFun Version 0.99 
----- Orbital basis set information -----
Your calculation utilizes the basis: def2-SVP
   F. Weigend and R. Ahlrichs, Phys. Chem. Chem. Phys. 7, 3297 (2005).

================================================================================
                                        WARNINGS
                       Please study these warnings very carefully!
================================================================================


INFO   : the flag for use of LIBINT has been found!

================================================================================
                                       INPUT FILE
================================================================================
NAME = config_168.inp
|  1> ! wB97X-D3 SP def2-SVP
|  2> %pal
|  3> nprocs 24
|  4> end
|  5> 
|  6> * xyz 0 1
|  7> S 	 -58.1449 	 -2.71598 	 -24.8264 	 
|  8> C 	 -58.1574 	 -3.27903 	 -26.4953 	 
|  9> C 	 -59.4274 	 -3.48876 	 -26.9423 	 
| 10> C 	 -60.4083 	 -3.03845 	 -25.9912 	 
| 11> C 	 -59.8596 	 -2.36893 	 -24.8688 	 
| 12> H 	 -61.4783 	 -3.12845 	 -26.1722 	 
| 13> C 	 -59.9011 	 -3.9755 	 -28.3182 	 
| 14> H 	 -59.0769 	 -4.00074 	 -28.9933 	 
| 15> H 	 -60.4894 	 -3.25034 	 -28.7321 	 
| 16> C 	 -60.7501 	 -5.25554 	 -28.3549 	 
| 17> H 	 -60.0517 	 -6.0018 	 -27.9941 	 
| 18> H 	 -61.6762 	 -5.27676 	 -27.7296 	 
| 19> C 	 -61.3093 	 -5.59493 	 -29.7642 	 
| 20> H 	 -60.5719 	 -5.30438 	 -30.5847 	 
| 21> H 	 -61.7087 	 -6.58158 	 -29.9296 	 
| 22> H 	 -62.1502 	 -4.90831 	 -29.8969 	 
| 23> S 	 -60.2973 	 -2.30808 	 -22.0204 	 
| 24> C 	 -61.6142 	 -1.14588 	 -21.5081 	 
| 25> C 	 -62.0746 	 -0.39671 	 -22.5363 	 
| 26> C 	 -61.561 	 -0.826852 	 -23.7998 	 
| 27> C 	 -60.5841 	 -1.83161 	 -23.7267 	 
| 28> H 	 -62.8136 	 0.428472 	 -22.4895 	 
| 29> C 	 -62.1077 	 -0.207009 	 -25.0895 	 
| 30> H 	 -63.0582 	 0.1956 	 -24.803 	 
| 31> H 	 -62.1752 	 -1.01856 	 -25.7828 	 
| 32> C 	 -61.2756 	 0.936662 	 -25.6919 	 
| 33> H 	 -61.3091 	 1.21866 	 -26.7445 	 
| 34> H 	 -60.2428 	 0.67334 	 -25.4809 	 
| 35> C 	 -61.5006 	 2.28819 	 -24.9813 	 
| 36> H 	 -62.4757 	 2.69544 	 -25.2149 	 
| 37> H 	 -60.7351 	 3.01093 	 -25.2353 	 
| 38> H 	 -61.4308 	 2.11613 	 -23.9401 	 
| 39> H 	 -57.3536 	 -3.69753 	 -27.0406 	 
| 40> H 	 -61.878 	 -0.923937 	 -20.527 	 
| 41> *
| 42> 
| 43>                          ****END OF INPUT****
================================================================================

                       ****************************
                       * Single Point Calculation *
                       ****************************

---------------------------------
CARTESIAN COORDINATES (ANGSTROEM)
---------------------------------
  S    -58.144900   -2.715980  -24.826400
  C    -58.157400   -3.279030  -26.495300
  C    -59.427400   -3.488760  -26.942300
  C    -60.408300   -3.038450  -25.991200
  C    -59.859600   -2.368930  -24.868800
  H    -61.478300   -3.128450  -26.172200
  C    -59.901100   -3.975500  -28.318200
  H    -59.076900   -4.000740  -28.993300
  H    -60.489400   -3.250340  -28.732100
  C    -60.750100   -5.255540  -28.354900
  H    -60.051700   -6.001800  -27.994100
  H    -61.676200   -5.276760  -27.729600
  C    -61.309300   -5.594930  -29.764200
  H    -60.571900   -5.304380  -30.584700
  H    -61.708700   -6.581580  -29.929600
  H    -62.150200   -4.908310  -29.896900
  S    -60.297300   -2.308080  -22.020400
  C    -61.614200   -1.145880  -21.508100
  C    -62.074600   -0.396710  -22.536300
  C    -61.561000   -0.826852  -23.799800
  C    -60.584100   -1.831610  -23.726700
  H    -62.813600    0.428472  -22.489500
  C    -62.107700   -0.207009  -25.089500
  H    -63.058200    0.195600  -24.803000
  H    -62.175200   -1.018560  -25.782800
  C    -61.275600    0.936662  -25.691900
  H    -61.309100    1.218660  -26.744500
  H    -60.242800    0.673340  -25.480900
  C    -61.500600    2.288190  -24.981300
  H    -62.475700    2.695440  -25.214900
  H    -60.735100    3.010930  -25.235300
  H    -61.430800    2.116130  -23.940100
  H    -57.353600   -3.697530  -27.040600
  H    -61.878000   -0.923937  -20.527000

----------------------------
CARTESIAN COORDINATES (A.U.)
----------------------------
  NO LB      ZA    FRAG     MASS         X           Y           Z
   0 S    16.0000    0    32.060  -109.877937   -5.132458  -46.915097
   1 C     6.0000    0    12.011  -109.901559   -6.196469  -50.068861
   2 C     6.0000    0    12.011  -112.301511   -6.592801  -50.913568
   3 C     6.0000    0    12.011  -114.155143   -5.741838  -49.116250
   4 C     6.0000    0    12.011  -113.118250   -4.476629  -46.995221
   5 H     1.0000    0     1.008  -116.177150   -5.911914  -49.458290
   6 C     6.0000    0    12.011  -113.196674   -7.512606  -53.513643
   7 H     1.0000    0     1.008  -111.639162   -7.560303  -54.789397
   8 H     1.0000    0     1.008  -114.308400   -6.142252  -54.295800
   9 C     6.0000    0    12.011  -114.801052   -9.931531  -53.582996
  10 H     1.0000    0     1.008  -113.481267  -11.341758  -52.901182
  11 H     1.0000    0     1.008  -116.551127   -9.971631  -52.401350
  12 C     6.0000    0    12.011  -115.857786  -10.572885  -56.246187
  13 H     1.0000    0     1.008  -114.464302  -10.023826  -57.796707
  14 H     1.0000    0     1.008  -116.612543  -12.437384  -56.558747
  15 H     1.0000    0     1.008  -117.446857   -9.275362  -56.496953
  16 S    16.0000    0    32.060  -113.945384   -4.361639  -41.612525
  17 C     6.0000    0    12.011  -116.433964   -2.165399  -40.644419
  18 C     6.0000    0    12.011  -117.303994   -0.749673  -42.587435
  19 C     6.0000    0    12.011  -116.333431   -1.562524  -44.975104
  20 C     6.0000    0    12.011  -114.487357   -3.461241  -44.836965
  21 H     1.0000    0     1.008  -118.700501    0.809695  -42.498996
  22 C     6.0000    0    12.011  -117.366544   -0.391190  -47.412284
  23 H     1.0000    0     1.008  -119.162728    0.369630  -46.870877
  24 H     1.0000    0     1.008  -117.494100   -1.924799  -48.722431
  25 C     6.0000    0    12.011  -115.794103    1.770035  -48.550655
  26 H     1.0000    0     1.008  -115.857409    2.302934  -50.539781
  27 H     1.0000    0     1.008  -113.842394    1.272428  -48.151923
  28 C     6.0000    0    12.011  -116.219291    4.324052  -47.207815
  29 H     1.0000    0     1.008  -118.061963    5.093643  -47.649255
  30 H     1.0000    0     1.008  -114.772706    5.689833  -47.687806
  31 H     1.0000    0     1.008  -116.087388    3.998906  -45.240233
  32 H     1.0000    0     1.008  -108.382597   -6.987319  -51.099328
  33 H     1.0000    0     1.008  -116.932474   -1.745988  -38.790408

--------------------------------
INTERNAL COORDINATES (ANGSTROEM)
--------------------------------
 S      0   0   0     0.000000000000     0.00000000     0.00000000
 C      1   0   0     1.761365595923     0.00000000     0.00000000
 C      2   1   0     1.362606206099   111.50875874     0.00000000
 C      3   2   1     1.438587889599   111.74309035     7.13814433
 C      4   3   2     1.417430943785   114.04337826     5.61160976
 H      4   3   2     1.088926535630   122.29196120   180.32014322
 C      3   2   1     1.534408135927   129.10342731   180.04489654
 H      7   3   2     1.065693533620   109.68179163   351.06081172
 H      7   3   2     1.021404486773   108.41914789   240.62075772
 C      7   3   2     1.536440786884   117.14789467   121.74398739
 H     10   7   3     1.083901834854   102.09898697   295.50497126
 H     10   7   3     1.117636608384   117.40848775    55.28251783
 C     10   7   3     1.553710623668   113.73647746   173.99434993
 H     13  10   7     1.140788460890   111.35275700    34.95634805
 H     13  10   7     1.077198098077   118.21613360   165.61018329
 H     13  10   7     1.093695169780   104.45633980   282.75904535
 S      5   4   3     2.882475771364   137.19609425   221.52971987
 C     17   5   4     1.829586220980   113.54104683   274.59429471
 C     18  17   5     1.352929816694   112.57473921   353.42326556
 C     19  18  17     1.430118648981   112.49950886     8.44487941
 C     20  19  18     1.403287518139   114.79301166   353.56222493
 H     19  18  17     1.108709417803   127.36394801   184.73825600
 C     20  19  18     1.531800354044   119.60221043   172.46459241
 H     23  20  19     1.071273311009   104.09737484   339.19041953
 H     23  20  19     1.069502765588   105.14498466   219.32574338
 C     23  20  19     1.537289668944   115.96257089    97.39221537
 H     26  23  20     1.090234782973   123.65074034   156.41991837
 H     26  23  20     1.086524420197   104.95833267    34.73486767
 C     26  23  20     1.543439436708   113.08718578   280.65624160
 H     29  26  23     1.082239129075   111.19132069   287.99031456
 H     29  26  23     1.082986314595   111.92274042   165.07040851
 H     29  26  23     1.057626646601   107.52800450    47.80468346
 H      2   1   3     1.057633575488   127.56170407   197.89461801
 H     18  17   5     1.039906892587   125.61522854   184.74564739

---------------------------
INTERNAL COORDINATES (A.U.)
---------------------------
 S      0   0   0     0.000000000000     0.00000000     0.00000000
 C      1   0   0     3.328498598005     0.00000000     0.00000000
 C      2   1   0     2.574952557909   111.50875874     0.00000000
 C      3   2   1     2.718537130917   111.74309035     7.13814433
 C      4   3   2     2.678556297500   114.04337826     5.61160976
 H      4   3   2     2.057772932301   122.29196120   180.32014322
 C      3   2   1     2.899611154563   129.10342731   180.04489654
 H      7   3   2     2.013868921233   109.68179163   351.06081172
 H      7   3   2     1.930174751959   108.41914789   240.62075772
 C      7   3   2     2.903452308197   117.14789467   121.74398739
 H     10   7   3     2.048277623929   102.09898697   295.50497126
 H     10   7   3     2.112027107090   117.40848775    55.28251783
 C     10   7   3     2.936087570097   113.73647746   173.99434993
 H     13  10   7     2.155777767820   111.35275700    34.95634805
 H     13  10   7     2.035609397346   118.21613360   165.61018329
 H     13  10   7     2.066784344877   104.45633980   282.75904535
 S      5   4   3     5.447089795541   137.19609425   221.52971987
 C     17   5   4     3.457416896048   113.54104683   274.59429471
 C     18  17   5     2.556666831968   112.57473921   353.42326556
 C     19  18  17     2.702532585588   112.49950886     8.44487941
 C     20  19  18     2.651829096432   114.79301166   353.56222493
 H     19  18  17     2.095157161746   127.36394801   184.73825600
 C     20  19  18     2.894683160987   119.60221043   172.46459241
 H     23  20  19     2.024413172387   104.09737484   339.19041953
 H     23  20  19     2.021067326433   105.14498466   219.32574338
 C     23  20  19     2.905056462810   115.96257089    97.39221537
 H     26  23  20     2.060245161494   123.65074034   156.41991837
 H     26  23  20     2.053233591990   104.95833267    34.73486767
 C     26  23  20     2.916677839671   113.08718578   280.65624160
 H     29  26  23     2.045135565364   111.19132069   287.99031456
 H     29  26  23     2.046547541369   111.92274042   165.07040851
 H     29  26  23     1.998624714013   107.52800450    47.80468346
 H      2   1   3     1.998637807713   127.56170407   197.89461801
 H     18  17   5     1.965139231766   125.61522854   184.74564739

---------------------
BASIS SET INFORMATION
---------------------
There are 3 groups of distinct atoms

 Group   1 Type S   : 10s7p1d contracted to 4s3p1d pattern {5311/511/1}
 Group   2 Type C   : 7s4p1d contracted to 3s2p1d pattern {511/31/1}
 Group   3 Type H   : 4s1p contracted to 2s1p pattern {31/1}

Atom   0S    basis set group =>   1
Atom   1C    basis set group =>   2
Atom   2C    basis set group =>   2
Atom   3C    basis set group =>   2
Atom   4C    basis set group =>   2
Atom   5H    basis set group =>   3
Atom   6C    basis set group =>   2
Atom   7H    basis set group =>   3
Atom   8H    basis set group =>   3
Atom   9C    basis set group =>   2
Atom  10H    basis set group =>   3
Atom  11H    basis set group =>   3
Atom  12C    basis set group =>   2
Atom  13H    basis set group =>   3
Atom  14H    basis set group =>   3
Atom  15H    basis set group =>   3
Atom  16S    basis set group =>   1
Atom  17C    basis set group =>   2
Atom  18C    basis set group =>   2
Atom  19C    basis set group =>   2
Atom  20C    basis set group =>   2
Atom  21H    basis set group =>   3
Atom  22C    basis set group =>   2
Atom  23H    basis set group =>   3
Atom  24H    basis set group =>   3
Atom  25C    basis set group =>   2
Atom  26H    basis set group =>   3
Atom  27H    basis set group =>   3
Atom  28C    basis set group =>   2
Atom  29H    basis set group =>   3
Atom  30H    basis set group =>   3
Atom  31H    basis set group =>   3
Atom  32H    basis set group =>   3
Atom  33H    basis set group =>   3


           ************************************************************
           *        Program running with 24 parallel MPI-processes    *
           *              working on a common directory               *
           ************************************************************
------------------------------------------------------------------------------
                           ORCA GTO INTEGRAL CALCULATION
------------------------------------------------------------------------------

                         BASIS SET STATISTICS AND STARTUP INFO

 # of primitive gaussian shells          ...  294
 # of primitive gaussian functions       ...  534
 # of contracted shells                  ...  154
 # of contracted basis functions         ...  322
 Highest angular momentum                ...    2
 Maximum contraction depth               ...    5
 Integral package used                   ... LIBINT
 Integral threshhold            Thresh   ...  1.000e-10
 Primitive cut-off              TCut     ...  1.000e-11


------------------------------ INTEGRAL EVALUATION ----------------------------


 * One electron integrals 
 Pre-screening matrix                    ... done
 Shell pair data                         ... done (   0.003 sec)



           ************************************************************
           *        Program running with 24 parallel MPI-processes    *
           *              working on a common directory               *
           ************************************************************
-------------------------------------------------------------------------------
                                 ORCA SCF
-------------------------------------------------------------------------------

------------
SCF SETTINGS
------------
Hamiltonian:
 Density Functional     Method          .... DFT(GTOs)
 Exchange Functional    Exchange        .... WB97X-D3
 Correlation Functional Correlation     .... WB97X-D3
 Gradients option       PostSCFGGA      .... off
 Hybrid DFT is turned on
   Fraction HF Exchange ScalHFX         ....  0.195728
   Scaling of DF-GGA-X  ScalDFX         ....  0.000000
   Scaling of DF-GGA-C  ScalDFC         ....  1.000000
   Scaling of DF-LDA-C  ScalLDAC        ....  1.000000
   Perturbative correction              ....  0.000000
   Density functional embedding theory  .... OFF
 Long-range corrected/Screened/Range-Separated Hybrid DFT is turned on
   Amount of maximum screened exact exchange              ....  0.804272
   Range separation parameter mu (erf(mu*r12)/r12)        ....  0.250000


General Settings:
 Integral files         IntName         .... config_168
 Hartree-Fock type      HFTyp           .... RHF
 Total Charge           Charge          ....    0
 Multiplicity           Mult            ....    1
 Number of Electrons    NEL             ....  134
 Basis Dimension        Dim             ....  322
 Nuclear Repulsion      ENuc            ....   1273.6197002724 Eh

Convergence Acceleration:
 DIIS                   CNVDIIS         .... on
   Start iteration      DIISMaxIt       ....    12
   Startup error        DIISStart       ....  0.200000
   # of expansion vecs  DIISMaxEq       ....     5
   Bias factor          DIISBfac        ....   1.050
   Max. coefficient     DIISMaxC        ....  10.000
 Newton-Raphson         CNVNR           .... off
 SOSCF                  CNVSOSCF        .... on
   Start iteration      SOSCFMaxIt      ....   150
   Startup grad/error   SOSCFStart      ....  0.003300
 Level Shifting         CNVShift        .... on
   Level shift para.    LevelShift      ....    0.2500
   Turn off err/grad.   ShiftErr        ....    0.0010
 Zerner damping         CNVZerner       .... off
 Static damping         CNVDamp         .... on
   Fraction old density DampFac         ....    0.7000
   Max. Damping (<1)    DampMax         ....    0.9800
   Min. Damping (>=0)   DampMin         ....    0.0000
   Turn off err/grad.   DampErr         ....    0.1000
 Fernandez-Rico         CNVRico         .... off

SCF Procedure:
 Maximum # iterations   MaxIter         ....   125
 SCF integral mode      SCFMode         .... Direct
   Integral package                     .... LIBINT
 Reset frequency        DirectResetFreq ....    20
 Integral Threshold     Thresh          ....  1.000e-10 Eh
 Primitive CutOff       TCut            ....  1.000e-11 Eh

Convergence Tolerance:
 Convergence Check Mode ConvCheckMode   .... Total+1el-Energy
 Convergence forced     ConvForced      .... 0
 Energy Change          TolE            ....  1.000e-06 Eh
 1-El. energy change                    ....  1.000e-03 Eh
 Orbital Gradient       TolG            ....  5.000e-05
 Orbital Rotation angle TolX            ....  5.000e-05
 DIIS Error             TolErr          ....  1.000e-06


Diagonalization of the overlap matrix:
Smallest eigenvalue                        ... 7.711e-04
Time for diagonalization                   ...    0.014 sec
Threshold for overlap eigenvalues          ... 1.000e-08
Number of eigenvalues below threshold      ... 0
Time for construction of square roots      ...    0.028 sec
Total time needed                          ...    0.043 sec

-------------------
DFT GRID GENERATION
-------------------

General Integration Accuracy     IntAcc      ...  4.340
Radial Grid Type                 RadialGrid  ... Gauss-Chebyshev
Angular Grid (max. acc.)         AngularGrid ... Lebedev-110
Angular grid pruning method      GridPruning ... 3 (G Style)
Weight generation scheme         WeightScheme... Becke
Basis function cutoff            BFCut       ...    1.0000e-10
Integration weight cutoff        WCut        ...    1.0000e-14
Grids for H and He will be reduced by one unit

# of grid points (after initial pruning)     ...  41088 (   0.0 sec)
# of grid points (after weights+screening)   ...  36943 (   0.0 sec)
nearest neighbour list constructed           ...    0.0 sec
Grid point re-assignment to atoms done       ...    0.0 sec
Grid point division into batches done        ...    0.0 sec
Reduced shell lists constructed in    0.1 sec

Total number of grid points                  ...    36943
Total number of batches                      ...      592
Average number of points per batch           ...       62
Average number of grid points per atom       ...     1087
Average number of shells per batch           ...    70.54 (45.80%)
Average number of basis functions per batch  ...   138.85 (43.12%)
Average number of large shells per batch     ...    44.23 (62.70%)
Average number of large basis fcns per batch ...    90.38 (65.10%)
Maximum spatial batch extension              ...  17.94, 23.91, 12.84 au
Average spatial batch extension              ...   0.18,  0.18,  0.16 au

Time for grid setup =    0.153 sec

------------------------------
INITIAL GUESS: MODEL POTENTIAL
------------------------------
Loading Hartree-Fock densities                     ... done
Calculating cut-offs                               ... done
Setting up the integral package                    ... done
Initializing the effective Hamiltonian             ... done
Starting the Coulomb interaction                   ... done (   0.0 sec)
Reading the grid                                   ... done
Mapping shells                                     ... done
Starting the XC term evaluation                    ... done (   0.0 sec)
  promolecular density results
     # of electrons  =    134.000250136
     EX              =   -126.705092905
     EC              =     -4.615951070
     EX+EC           =   -131.321043975
Transforming the Hamiltonian                       ... done (   0.0 sec)
Diagonalizing the Hamiltonian                      ... done (   0.0 sec)
Back transforming the eigenvectors                 ... done (   0.0 sec)
Now organizing SCF variables                       ... done
                      ------------------
                      INITIAL GUESS DONE (   0.3 sec)
                      ------------------
--------------
SCF ITERATIONS
--------------
ITER       Energy         Delta-E        Max-DP      RMS-DP      [F,P]     Damp
               ***  Starting incremental Fock matrix formation  ***
  0  -1339.4033552484   0.000000000000 0.06758484  0.00155826  0.1700161 0.7000
  1  -1339.5926746013  -0.189319352881 0.04535236  0.00113424  0.1027440 0.7000
                               ***Turning on DIIS***
  2  -1339.6842781255  -0.091603524216 0.08486416  0.00212622  0.0532784 0.0000
  3  -1339.8225414287  -0.138263303229 0.04605544  0.00100246  0.0415036 0.0000
  4  -1339.8526060356  -0.030064606857 0.00784485  0.00021087  0.0075872 0.0000
  5  -1339.8535573685  -0.000951332939 0.00294480  0.00010601  0.0033973 0.0000
                      *** Initiating the SOSCF procedure ***
                           *** Shutting down DIIS ***
                      *** Re-Reading the Fockian *** 
                      *** Removing any level shift *** 
ITER      Energy       Delta-E        Grad      Rot      Max-DP    RMS-DP
  6  -1339.85377696  -0.0002195883  0.001452  0.001452  0.002101  0.000058
               *** Restarting incremental Fock matrix formation ***
  7  -1339.85384710  -0.0000701416  0.000783  0.002236  0.002001  0.000036
  8  -1339.85387634  -0.0000292429  0.000440  0.003004  0.002663  0.000051
  9  -1339.85388329  -0.0000069502  0.000428  0.000898  0.000706  0.000017
 10  -1339.85388752  -0.0000042252  0.000088  0.000219  0.000351  0.000005
 11  -1339.85388762  -0.0000001009  0.000030  0.000061  0.000138  0.000002
                  ***Gradient check signals convergence***
              ***Rediagonalizing the Fockian in SOSCF/NRSCF***

               *****************************************************
               *                     SUCCESS                       *
               *           SCF CONVERGED AFTER  12 CYCLES          *
               *****************************************************

Setting up the final grid:

General Integration Accuracy     IntAcc      ...  4.670
Radial Grid Type                 RadialGrid  ... Gauss-Chebyshev
Angular Grid (max. acc.)         AngularGrid ... Lebedev-302
Angular grid pruning method      GridPruning ... 3 (G Style)
Weight generation scheme         WeightScheme... Becke
Basis function cutoff            BFCut       ...    1.0000e-10
Integration weight cutoff        WCut        ...    1.0000e-14
Grids for H and He will be reduced by one unit

# of grid points (after initial pruning)     ... 161752 (   0.0 sec)
# of grid points (after weights+screening)   ... 142767 (   0.1 sec)
nearest neighbour list constructed           ...    0.0 sec
Grid point re-assignment to atoms done       ...    0.0 sec
Grid point division into batches done        ...    0.5 sec
Reduced shell lists constructed in    0.5 sec

Total number of grid points                  ...   142767
Total number of batches                      ...     2246
Average number of points per batch           ...       63
Average number of grid points per atom       ...     4199
Average number of shells per batch           ...    64.09 (41.62%)
Average number of basis functions per batch  ...   125.99 (39.13%)
Average number of large shells per batch     ...    39.45 (61.55%)
Average number of large basis fcns per batch ...    81.20 (64.45%)
Maximum spatial batch extension              ...  14.79, 16.09, 13.75 au
Average spatial batch extension              ...   0.11,  0.12,  0.11 au

Final grid set up in    0.9 sec
Final integration                            ... done (   0.2 sec)
Change in XC energy                          ...     0.008291720
Integrated number of electrons               ...   134.000105687
Previous integrated no of electrons          ...   134.004847571

----------------
TOTAL SCF ENERGY
----------------

Total Energy       :        -1339.84559600 Eh          -36459.05221 eV

Components:
Nuclear Repulsion  :         1273.61970027 Eh           34656.95397 eV
Electronic Energy  :        -2613.46529627 Eh          -71116.00618 eV
One Electron Energy:        -4363.69510632 Eh         -118742.18058 eV
Two Electron Energy:         1750.22981005 Eh           47626.17440 eV

Virial components:
Potential Energy   :        -2671.33985201 Eh          -72690.85290 eV
Kinetic Energy     :         1331.49425601 Eh           36231.80070 eV
Virial Ratio       :            2.00627216


DFT components:
N(Alpha)           :       67.000052843298 electrons
N(Beta)            :       67.000052843298 electrons
N(Total)           :      134.000105686596 electrons
E(XC)              :      -94.252281751441 Eh       
DFET-embed. en.    :        0.000000000000 Eh       

---------------
SCF CONVERGENCE
---------------

  Last Energy change         ...   -1.0473e-07  Tolerance :   1.0000e-06
  Last MAX-Density change    ...    2.5096e-05  Tolerance :   1.0000e-05
  Last RMS-Density change    ...    4.6778e-07  Tolerance :   1.0000e-06
  Last Orbital Gradient      ...    4.7675e-06  Tolerance :   5.0000e-05
  Last Orbital Rotation      ...    1.5993e-05  Tolerance :   5.0000e-05

             **** THE GBW FILE WAS UPDATED (config_168.gbw) ****
             **** DENSITY FILE WAS UPDATED (config_168.scfp) ****
             **** ENERGY FILE WAS UPDATED (config_168.en.tmp) ****
             **** THE GBW FILE WAS UPDATED (config_168.gbw) ****
             **** DENSITY FILE WAS UPDATED (config_168.scfp) ****
----------------
ORBITAL ENERGIES
----------------

  NO   OCC          E(Eh)            E(eV) 
   0   2.0000     -88.971511     -2421.0379 
   1   2.0000     -88.968448     -2420.9545 
   2   2.0000     -10.335875      -281.2535 
   3   2.0000     -10.333483      -281.1884 
   4   2.0000     -10.320191      -280.8267 
   5   2.0000     -10.312335      -280.6129 
   6   2.0000     -10.304093      -280.3886 
   7   2.0000     -10.302205      -280.3372 
   8   2.0000     -10.298917      -280.2478 
   9   2.0000     -10.297968      -280.2219 
  10   2.0000     -10.293015      -280.0872 
  11   2.0000     -10.288619      -279.9675 
  12   2.0000     -10.288486      -279.9639 
  13   2.0000     -10.286157      -279.9006 
  14   2.0000     -10.280264      -279.7402 
  15   2.0000     -10.268241      -279.4130 
  16   2.0000      -8.084131      -219.9804 
  17   2.0000      -8.082902      -219.9470 
  18   2.0000      -6.043001      -164.4384 
  19   2.0000      -6.041535      -164.3985 
  20   2.0000      -6.039098      -164.3322 
  21   2.0000      -6.037598      -164.2914 
  22   2.0000      -6.034472      -164.2063 
  23   2.0000      -6.033397      -164.1771 
  24   2.0000      -1.002396       -27.2766 
  25   2.0000      -0.979840       -26.6628 
  26   2.0000      -0.913618       -24.8608 
  27   2.0000      -0.906281       -24.6612 
  28   2.0000      -0.872848       -23.7514 
  29   2.0000      -0.847943       -23.0737 
  30   2.0000      -0.843819       -22.9615 
  31   2.0000      -0.814866       -22.1736 
  32   2.0000      -0.786647       -21.4058 
  33   2.0000      -0.773754       -21.0549 
  34   2.0000      -0.715400       -19.4670 
  35   2.0000      -0.701305       -19.0835 
  36   2.0000      -0.690862       -18.7993 
  37   2.0000      -0.663241       -18.0477 
  38   2.0000      -0.639844       -17.4110 
  39   2.0000      -0.620736       -16.8911 
  40   2.0000      -0.592156       -16.1134 
  41   2.0000      -0.574136       -15.6230 
  42   2.0000      -0.564047       -15.3485 
  43   2.0000      -0.555133       -15.1059 
  44   2.0000      -0.551735       -15.0135 
  45   2.0000      -0.526543       -14.3280 
  46   2.0000      -0.514023       -13.9873 
  47   2.0000      -0.508862       -13.8468 
  48   2.0000      -0.505322       -13.7505 
  49   2.0000      -0.503132       -13.6909 
  50   2.0000      -0.484010       -13.1706 
  51   2.0000      -0.476408       -12.9637 
  52   2.0000      -0.474961       -12.9244 
  53   2.0000      -0.462868       -12.5953 
  54   2.0000      -0.462015       -12.5721 
  55   2.0000      -0.453902       -12.3513 
  56   2.0000      -0.447567       -12.1789 
  57   2.0000      -0.436823       -11.8866 
  58   2.0000      -0.431006       -11.7283 
  59   2.0000      -0.424959       -11.5637 
  60   2.0000      -0.422176       -11.4880 
  61   2.0000      -0.416416       -11.3312 
  62   2.0000      -0.409213       -11.1353 
  63   2.0000      -0.351278        -9.5588 
  64   2.0000      -0.334707        -9.1078 
  65   2.0000      -0.329170        -8.9572 
  66   2.0000      -0.290802        -7.9131 
  67   0.0000       0.021182         0.5764 
  68   0.0000       0.062479         1.7001 
  69   0.0000       0.098933         2.6921 
  70   0.0000       0.118750         3.2314 
  71   0.0000       0.127240         3.4624 
  72   0.0000       0.135396         3.6843 
  73   0.0000       0.151152         4.1130 
  74   0.0000       0.155236         4.2242 
  75   0.0000       0.164657         4.4805 
  76   0.0000       0.169479         4.6117 
  77   0.0000       0.177402         4.8273 
  78   0.0000       0.191220         5.2034 
  79   0.0000       0.195946         5.3320 
  80   0.0000       0.203551         5.5389 
  81   0.0000       0.207961         5.6589 
  82   0.0000       0.213988         5.8229 
  83   0.0000       0.216284         5.8854 
  84   0.0000       0.217768         5.9258 
  85   0.0000       0.228278         6.2118 
  86   0.0000       0.229933         6.2568 
  87   0.0000       0.236863         6.4454 
  88   0.0000       0.241286         6.5657 
  89   0.0000       0.249413         6.7869 
  90   0.0000       0.254101         6.9144 
  91   0.0000       0.267870         7.2891 
  92   0.0000       0.285350         7.7648 
  93   0.0000       0.287678         7.8281 
  94   0.0000       0.305419         8.3109 
  95   0.0000       0.318034         8.6542 
  96   0.0000       0.328466         8.9380 
  97   0.0000       0.341271         9.2865 
  98   0.0000       0.344998         9.3879 
  99   0.0000       0.371064        10.0972 
 100   0.0000       0.380055        10.3418 
 101   0.0000       0.395973        10.7750 
 102   0.0000       0.414823        11.2879 
 103   0.0000       0.424114        11.5407 
 104   0.0000       0.436829        11.8867 
 105   0.0000       0.441622        12.0171 
 106   0.0000       0.474934        12.9236 
 107   0.0000       0.487227        13.2581 
 108   0.0000       0.492420        13.3994 
 109   0.0000       0.493472        13.4281 
 110   0.0000       0.502637        13.6774 
 111   0.0000       0.508307        13.8317 
 112   0.0000       0.512727        13.9520 
 113   0.0000       0.526752        14.3337 
 114   0.0000       0.531882        14.4732 
 115   0.0000       0.539470        14.6797 
 116   0.0000       0.543621        14.7927 
 117   0.0000       0.551625        15.0105 
 118   0.0000       0.553863        15.0714 
 119   0.0000       0.572120        15.5682 
 120   0.0000       0.579117        15.7586 
 121   0.0000       0.591993        16.1090 
 122   0.0000       0.596261        16.2251 
 123   0.0000       0.604643        16.4532 
 124   0.0000       0.609292        16.5797 
 125   0.0000       0.618729        16.8365 
 126   0.0000       0.630385        17.1536 
 127   0.0000       0.649057        17.6618 
 128   0.0000       0.654979        17.8229 
 129   0.0000       0.667040        18.1511 
 130   0.0000       0.668317        18.1858 
 131   0.0000       0.675476        18.3806 
 132   0.0000       0.685541        18.6545 
 133   0.0000       0.702938        19.1279 
 134   0.0000       0.704603        19.1732 
 135   0.0000       0.720380        19.6025 
 136   0.0000       0.721616        19.6362 
 137   0.0000       0.725090        19.7307 
 138   0.0000       0.733014        19.9463 
 139   0.0000       0.739127        20.1127 
 140   0.0000       0.745067        20.2743 
 141   0.0000       0.748941        20.3797 
 142   0.0000       0.755911        20.5694 
 143   0.0000       0.757791        20.6205 
 144   0.0000       0.764674        20.8078 
 145   0.0000       0.766820        20.8662 
 146   0.0000       0.772515        21.0212 
 147   0.0000       0.775796        21.1105 
 148   0.0000       0.776784        21.1374 
 149   0.0000       0.785527        21.3753 
 150   0.0000       0.789900        21.4943 
 151   0.0000       0.792063        21.5531 
 152   0.0000       0.795576        21.6487 
 153   0.0000       0.800136        21.7728 
 154   0.0000       0.802467        21.8362 
 155   0.0000       0.807170        21.9642 
 156   0.0000       0.814024        22.1507 
 157   0.0000       0.815795        22.1989 
 158   0.0000       0.824573        22.4378 
 159   0.0000       0.827901        22.5283 
 160   0.0000       0.830099        22.5881 
 161   0.0000       0.836083        22.7510 
 162   0.0000       0.844293        22.9744 
 163   0.0000       0.850465        23.1423 
 164   0.0000       0.854588        23.2545 
 165   0.0000       0.865554        23.5529 
 166   0.0000       0.871320        23.7098 
 167   0.0000       0.883820        24.0500 
 168   0.0000       0.894980        24.3537 
 169   0.0000       0.902450        24.5569 
 170   0.0000       0.906435        24.6654 
 171   0.0000       0.916829        24.9482 
 172   0.0000       0.925937        25.1960 
 173   0.0000       0.927669        25.2432 
 174   0.0000       0.944090        25.6900 
 175   0.0000       0.955273        25.9943 
 176   0.0000       0.982555        26.7367 
 177   0.0000       0.995730        27.0952 
 178   0.0000       1.019978        27.7550 
 179   0.0000       1.031786        28.0763 
 180   0.0000       1.040465        28.3125 
 181   0.0000       1.062636        28.9158 
 182   0.0000       1.077512        29.3206 
 183   0.0000       1.088276        29.6135 
 184   0.0000       1.101565        29.9751 
 185   0.0000       1.122969        30.5575 
 186   0.0000       1.132263        30.8105 
 187   0.0000       1.162664        31.6377 
 188   0.0000       1.167401        31.7666 
 189   0.0000       1.188377        32.3374 
 190   0.0000       1.199600        32.6428 
 191   0.0000       1.229257        33.4498 
 192   0.0000       1.246516        33.9194 
 193   0.0000       1.252345        34.0780 
 194   0.0000       1.291802        35.1517 
 195   0.0000       1.293441        35.1963 
 196   0.0000       1.323162        36.0051 
 197   0.0000       1.333043        36.2739 
 198   0.0000       1.340637        36.4806 
 199   0.0000       1.347414        36.6650 
 200   0.0000       1.388455        37.7818 
 201   0.0000       1.418426        38.5973 
 202   0.0000       1.420918        38.6651 
 203   0.0000       1.442354        39.2484 
 204   0.0000       1.468789        39.9678 
 205   0.0000       1.490903        40.5695 
 206   0.0000       1.503180        40.9036 
 207   0.0000       1.517369        41.2897 
 208   0.0000       1.540691        41.9243 
 209   0.0000       1.562178        42.5090 
 210   0.0000       1.567023        42.6409 
 211   0.0000       1.596688        43.4481 
 212   0.0000       1.621738        44.1297 
 213   0.0000       1.631125        44.3852 
 214   0.0000       1.658714        45.1359 
 215   0.0000       1.667427        45.3730 
 216   0.0000       1.674093        45.5544 
 217   0.0000       1.710448        46.5437 
 218   0.0000       1.746211        47.5168 
 219   0.0000       1.760635        47.9093 
 220   0.0000       1.766391        48.0660 
 221   0.0000       1.790549        48.7233 
 222   0.0000       1.801980        49.0344 
 223   0.0000       1.817788        49.4645 
 224   0.0000       1.820679        49.5432 
 225   0.0000       1.823803        49.6282 
 226   0.0000       1.846127        50.2357 
 227   0.0000       1.859769        50.6069 
 228   0.0000       1.865889        50.7734 
 229   0.0000       1.870573        50.9009 
 230   0.0000       1.880932        51.1828 
 231   0.0000       1.882920        51.2368 
 232   0.0000       1.887880        51.3718 
 233   0.0000       1.892678        51.5024 
 234   0.0000       1.905083        51.8399 
 235   0.0000       1.909569        51.9620 
 236   0.0000       1.919824        52.2411 
 237   0.0000       1.922718        52.3198 
 238   0.0000       1.931089        52.5476 
 239   0.0000       1.942445        52.8566 
 240   0.0000       1.951031        53.0903 
 241   0.0000       1.956399        53.2363 
 242   0.0000       1.962869        53.4124 
 243   0.0000       1.963792        53.4375 
 244   0.0000       1.980612        53.8952 
 245   0.0000       1.988840        54.1191 
 246   0.0000       2.000804        54.4446 
 247   0.0000       2.001889        54.4742 
 248   0.0000       2.020660        54.9849 
 249   0.0000       2.034303        55.3562 
 250   0.0000       2.047231        55.7080 
 251   0.0000       2.070645        56.3451 
 252   0.0000       2.079002        56.5725 
 253   0.0000       2.082571        56.6697 
 254   0.0000       2.091939        56.9246 
 255   0.0000       2.121172        57.7200 
 256   0.0000       2.126736        57.8714 
 257   0.0000       2.128253        57.9127 
 258   0.0000       2.138809        58.1999 
 259   0.0000       2.163882        58.8822 
 260   0.0000       2.170594        59.0649 
 261   0.0000       2.190250        59.5997 
 262   0.0000       2.199014        59.8382 
 263   0.0000       2.201870        59.9159 
 264   0.0000       2.218738        60.3749 
 265   0.0000       2.228642        60.6444 
 266   0.0000       2.253007        61.3074 
 267   0.0000       2.273281        61.8591 
 268   0.0000       2.285554        62.1931 
 269   0.0000       2.305413        62.7335 
 270   0.0000       2.322691        63.2036 
 271   0.0000       2.352592        64.0173 
 272   0.0000       2.382628        64.8346 
 273   0.0000       2.392954        65.1156 
 274   0.0000       2.415927        65.7407 
 275   0.0000       2.426065        66.0166 
 276   0.0000       2.434777        66.2537 
 277   0.0000       2.458378        66.8959 
 278   0.0000       2.475320        67.3569 
 279   0.0000       2.485651        67.6380 
 280   0.0000       2.502107        68.0858 
 281   0.0000       2.507788        68.2404 
 282   0.0000       2.519897        68.5699 
 283   0.0000       2.520639        68.5901 
 284   0.0000       2.551192        69.4215 
 285   0.0000       2.564856        69.7933 
 286   0.0000       2.581334        70.2417 
 287   0.0000       2.585520        70.3556 
 288   0.0000       2.611648        71.0666 
 289   0.0000       2.627441        71.4963 
 290   0.0000       2.642105        71.8953 
 291   0.0000       2.670407        72.6655 
 292   0.0000       2.690742        73.2188 
 293   0.0000       2.711874        73.7939 
 294   0.0000       2.738949        74.5306 
 295   0.0000       2.762242        75.1644 
 296   0.0000       2.770855        75.3988 
 297   0.0000       2.786966        75.8372 
 298   0.0000       2.793455        76.0138 
 299   0.0000       2.819879        76.7328 
 300   0.0000       2.848288        77.5059 
 301   0.0000       2.874715        78.2250 
 302   0.0000       2.893866        78.7461 
 303   0.0000       2.941381        80.0391 
 304   0.0000       2.969786        80.8120 
 305   0.0000       2.983817        81.1938 
 306   0.0000       3.022320        82.2415 
 307   0.0000       3.027223        82.3749 
 308   0.0000       3.034747        82.5797 
 309   0.0000       3.043787        82.8256 
 310   0.0000       3.087966        84.0278 
 311   0.0000       3.096555        84.2615 
 312   0.0000       3.103897        84.4613 
 313   0.0000       3.131684        85.2174 
 314   0.0000       3.154422        85.8362 
 315   0.0000       3.162262        86.0495 
 316   0.0000       3.178190        86.4830 
 317   0.0000       3.201939        87.1292 
 318   0.0000       3.237405        88.0943 
 319   0.0000       3.268171        88.9315 
 320   0.0000       3.361411        91.4686 
 321   0.0000       3.431775        93.3833 

                    ********************************
                    * MULLIKEN POPULATION ANALYSIS *
                    ********************************

-----------------------
MULLIKEN ATOMIC CHARGES
-----------------------
   0 S :    0.104870
   1 C :   -0.095446
   2 C :   -0.084378
   3 C :    0.016786
   4 C :   -0.170500
   5 H :    0.027336
   6 C :    0.114184
   7 H :    0.005279
   8 H :    0.001257
   9 C :   -0.096759
  10 H :    0.033841
  11 H :    0.044440
  12 C :   -0.068444
  13 H :    0.036193
  14 H :    0.044566
  15 H :    0.026133
  16 S :    0.098243
  17 C :   -0.060223
  18 C :   -0.013824
  19 C :   -0.121795
  20 C :   -0.122351
  21 H :    0.036083
  22 C :    0.144255
  23 H :    0.006277
  24 H :    0.011270
  25 C :   -0.065108
  26 H :    0.034701
  27 H :    0.030462
  28 C :   -0.057173
  29 H :    0.026162
  30 H :    0.034170
  31 H :    0.013802
  32 H :    0.031848
  33 H :    0.033844
Sum of atomic charges:    0.0000000

--------------------------------
MULLIKEN REDUCED ORBITAL CHARGES
--------------------------------
  0 S s       :     5.847279  s :     5.847279
      pz      :     3.190767  p :     9.942139
      px      :     3.159477
      py      :     3.591894
      dz2     :     0.035641  d :     0.105713
      dxz     :     0.014369
      dyz     :     0.016168
      dx2y2   :     0.023082
      dxy     :     0.016453
  1 C s       :     3.166228  s :     3.166228
      pz      :     0.827674  p :     2.894138
      px      :     0.989318
      py      :     1.077146
      dz2     :     0.009723  d :     0.035080
      dxz     :     0.008038
      dyz     :     0.004947
      dx2y2   :     0.005026
      dxy     :     0.007346
  2 C s       :     3.067155  s :     3.067155
      pz      :     1.006106  p :     2.973250
      px      :     0.976224
      py      :     0.990920
      dz2     :     0.009393  d :     0.043972
      dxz     :     0.013890
      dyz     :     0.005504
      dx2y2   :     0.005879
      dxy     :     0.009307
  3 C s       :     3.188389  s :     3.188389
      pz      :     0.930651  p :     2.762177
      px      :     0.861906
      py      :     0.969621
      dz2     :     0.008105  d :     0.032648
      dxz     :     0.008625
      dyz     :     0.005338
      dx2y2   :     0.006254
      dxy     :     0.004327
  4 C s       :     3.082990  s :     3.082990
      pz      :     1.035309  p :     3.043562
      px      :     0.941956
      py      :     1.066296
      dz2     :     0.010322  d :     0.043947
      dxz     :     0.008930
      dyz     :     0.007207
      dx2y2   :     0.009668
      dxy     :     0.007820
  5 H s       :     0.949308  s :     0.949308
      pz      :     0.003988  p :     0.023357
      px      :     0.014759
      py      :     0.004609
  6 C s       :     2.905668  s :     2.905668
      pz      :     0.965234  p :     2.943627
      px      :     0.982344
      py      :     0.996049
      dz2     :     0.006217  d :     0.036521
      dxz     :     0.009259
      dyz     :     0.006753
      dx2y2   :     0.005624
      dxy     :     0.008668
  7 H s       :     0.970298  s :     0.970298
      pz      :     0.008508  p :     0.024423
      px      :     0.011237
      py      :     0.004678
  8 H s       :     0.971658  s :     0.971658
      pz      :     0.006806  p :     0.027086
      px      :     0.009545
      py      :     0.010734
  9 C s       :     3.082960  s :     3.082960
      pz      :     0.998948  p :     2.978106
      px      :     0.974695
      py      :     1.004462
      dz2     :     0.006764  d :     0.035694
      dxz     :     0.009253
      dyz     :     0.004978
      dx2y2   :     0.005790
      dxy     :     0.008907
 10 H s       :     0.943450  s :     0.943450
      pz      :     0.004943  p :     0.022709
      px      :     0.008585
      py      :     0.009181
 11 H s       :     0.933908  s :     0.933908
      pz      :     0.007523  p :     0.021652
      px      :     0.010638
      py      :     0.003491
 12 C s       :     3.044723  s :     3.044723
      pz      :     0.969394  p :     2.996293
      px      :     1.014778
      py      :     1.012121
      dz2     :     0.007192  d :     0.027428
      dxz     :     0.006747
      dyz     :     0.003350
      dx2y2   :     0.002738
      dxy     :     0.007401
 13 H s       :     0.942481  s :     0.942481
      pz      :     0.008320  p :     0.021326
      px      :     0.008209
      py      :     0.004798
 14 H s       :     0.931484  s :     0.931484
      pz      :     0.004146  p :     0.023950
      px      :     0.006346
      py      :     0.013458
 15 H s       :     0.949626  s :     0.949626
      pz      :     0.004844  p :     0.024241
      px      :     0.010436
      py      :     0.008962
 16 S s       :     5.855033  s :     5.855033
      pz      :     3.018420  p :     9.955487
      px      :     3.416102
      py      :     3.520965
      dz2     :     0.027680  d :     0.091237
      dxz     :     0.016741
      dyz     :     0.019893
      dx2y2   :     0.009658
      dxy     :     0.017265
 17 C s       :     3.142305  s :     3.142305
      pz      :     0.959194  p :     2.883702
      px      :     0.948389
      py      :     0.976120
      dz2     :     0.009783  d :     0.034216
      dxz     :     0.006020
      dyz     :     0.006836
      dx2y2   :     0.006038
      dxy     :     0.005538
 18 C s       :     3.157133  s :     3.157133
      pz      :     0.958224  p :     2.821322
      px      :     0.949204
      py      :     0.913894
      dz2     :     0.009381  d :     0.035369
      dxz     :     0.008588
      dyz     :     0.009405
      dx2y2   :     0.003475
      dxy     :     0.004521
 19 C s       :     3.103279  s :     3.103279
      pz      :     0.990228  p :     2.976003
      px      :     0.987499
      py      :     0.998276
      dz2     :     0.011238  d :     0.042513
      dxz     :     0.009111
      dyz     :     0.009061
      dx2y2   :     0.007284
      dxy     :     0.005819
 20 C s       :     3.039073  s :     3.039073
      pz      :     0.909675  p :     3.041535
      px      :     1.062198
      py      :     1.069662
      dz2     :     0.011288  d :     0.041743
      dxz     :     0.008618
      dyz     :     0.009041
      dx2y2   :     0.007329
      dxy     :     0.005466
 21 H s       :     0.940928  s :     0.940928
      pz      :     0.002992  p :     0.022989
      px      :     0.009427
      py      :     0.010571
 22 C s       :     2.919234  s :     2.919234
      pz      :     0.941243  p :     2.901632
      px      :     1.005125
      py      :     0.955264
      dz2     :     0.005909  d :     0.034880
      dxz     :     0.005696
      dyz     :     0.010336
      dx2y2   :     0.007222
      dxy     :     0.005717
 23 H s       :     0.969431  s :     0.969431
      pz      :     0.005371  p :     0.024292
      px      :     0.012921
      py      :     0.006000
 24 H s       :     0.963745  s :     0.963745
      pz      :     0.009298  p :     0.024985
      px      :     0.004790
      py      :     0.010897
 25 C s       :     3.047515  s :     3.047515
      pz      :     1.006261  p :     2.981665
      px      :     1.021114
      py      :     0.954289
      dz2     :     0.009549  d :     0.035929
      dxz     :     0.002474
      dyz     :     0.007678
      dx2y2   :     0.009329
      dxy     :     0.006899
 26 H s       :     0.942189  s :     0.942189
      pz      :     0.013569  p :     0.023110
      px      :     0.004635
      py      :     0.004907
 27 H s       :     0.945735  s :     0.945735
      pz      :     0.005180  p :     0.023803
      px      :     0.013557
      py      :     0.005065
 28 C s       :     2.997862  s :     2.997862
      pz      :     1.025888  p :     3.029799
      px      :     1.017022
      py      :     0.986888
      dz2     :     0.010469  d :     0.029512
      dxz     :     0.001494
      dyz     :     0.004162
      dx2y2   :     0.004670
      dxy     :     0.008718
 29 H s       :     0.949837  s :     0.949837
      pz      :     0.005474  p :     0.024001
      px      :     0.012758
      py      :     0.005769
 30 H s       :     0.942152  s :     0.942152
      pz      :     0.005558  p :     0.023679
      px      :     0.009668
      py      :     0.008453
 31 H s       :     0.960433  s :     0.960433
      pz      :     0.014812  p :     0.025765
      px      :     0.005566
      py      :     0.005387
 32 H s       :     0.942850  s :     0.942850
      pz      :     0.006697  p :     0.025302
      px      :     0.011062
      py      :     0.007543
 33 H s       :     0.939922  s :     0.939922
      pz      :     0.015422  p :     0.026234
      px      :     0.005513
      py      :     0.005299


                     *******************************
                     * LOEWDIN POPULATION ANALYSIS *
                     *******************************

----------------------
LOEWDIN ATOMIC CHARGES
----------------------
   0 S :    0.402455
   1 C :   -0.189673
   2 C :   -0.059555
   3 C :   -0.055670
   4 C :   -0.191290
   5 H :    0.028454
   6 C :   -0.022295
   7 H :    0.027059
   8 H :    0.018441
   9 C :   -0.041154
  10 H :    0.021709
  11 H :    0.030451
  12 C :   -0.070609
  13 H :    0.029751
  14 H :    0.026070
  15 H :    0.024336
  16 S :    0.356202
  17 C :   -0.146566
  18 C :   -0.068591
  19 C :   -0.049828
  20 C :   -0.190350
  21 H :    0.039675
  22 C :   -0.021848
  23 H :    0.023330
  24 H :    0.027167
  25 C :   -0.039752
  26 H :    0.025280
  27 H :    0.026134
  28 C :   -0.062099
  29 H :    0.019144
  30 H :    0.027012
  31 H :    0.015097
  32 H :    0.023745
  33 H :    0.017762

-------------------------------
LOEWDIN REDUCED ORBITAL CHARGES
-------------------------------
  0 S s       :     5.509974  s :     5.509974
      pz      :     3.210164  p :     9.956970
      px      :     3.191828
      py      :     3.554979
      dz2     :     0.045585  d :     0.130601
      dxz     :     0.016486
      dyz     :     0.018944
      dx2y2   :     0.029761
      dxy     :     0.019825
  1 C s       :     2.920155  s :     2.920155
      pz      :     0.994088  p :     3.185861
      px      :     1.095327
      py      :     1.096446
      dz2     :     0.023379  d :     0.083657
      dxz     :     0.021296
      dyz     :     0.010387
      dx2y2   :     0.013399
      dxy     :     0.015196
  2 C s       :     2.862875  s :     2.862875
      pz      :     1.027595  p :     3.088491
      px      :     1.079580
      py      :     0.981316
      dz2     :     0.022233  d :     0.108189
      dxz     :     0.038072
      dyz     :     0.011528
      dx2y2   :     0.015294
      dxy     :     0.021062
  3 C s       :     2.877736  s :     2.877736
      pz      :     1.038980  p :     3.092110
      px      :     1.047112
      py      :     1.006017
      dz2     :     0.020547  d :     0.085824
      dxz     :     0.025715
      dyz     :     0.013473
      dx2y2   :     0.015620
      dxy     :     0.010468
  4 C s       :     2.917536  s :     2.917536
      pz      :     1.081850  p :     3.170485
      px      :     1.017401
      py      :     1.071235
      dz2     :     0.024822  d :     0.103268
      dxz     :     0.024004
      dyz     :     0.017206
      dx2y2   :     0.020486
      dxy     :     0.016750
  5 H s       :     0.901591  s :     0.901591
      pz      :     0.013279  p :     0.069954
      px      :     0.042558
      py      :     0.014118
  6 C s       :     2.804189  s :     2.804189
      pz      :     1.014708  p :     3.126001
      px      :     1.058437
      py      :     1.052856
      dz2     :     0.016988  d :     0.092105
      dxz     :     0.024163
      dyz     :     0.015707
      dx2y2   :     0.012438
      dxy     :     0.022810
  7 H s       :     0.901429  s :     0.901429
      pz      :     0.025631  p :     0.071512
      px      :     0.030417
      py      :     0.015464
  8 H s       :     0.899190  s :     0.899190
      pz      :     0.022241  p :     0.082369
      px      :     0.027165
      py      :     0.032963
  9 C s       :     2.841224  s :     2.841224
      pz      :     1.036429  p :     3.114370
      px      :     1.036559
      py      :     1.041382
      dz2     :     0.016791  d :     0.085560
      dxz     :     0.022538
      dyz     :     0.010861
      dx2y2   :     0.012406
      dxy     :     0.022964
 10 H s       :     0.908775  s :     0.908775
      pz      :     0.016625  p :     0.069516
      px      :     0.024754
      py      :     0.028137
 11 H s       :     0.906324  s :     0.906324
      pz      :     0.021428  p :     0.063225
      px      :     0.030137
      py      :     0.011660
 12 C s       :     2.847606  s :     2.847606
      pz      :     1.022217  p :     3.154303
      px      :     1.060150
      py      :     1.071935
      dz2     :     0.018034  d :     0.068701
      dxz     :     0.017258
      dyz     :     0.007803
      dx2y2   :     0.007503
      dxy     :     0.018102
 13 H s       :     0.911911  s :     0.911911
      pz      :     0.024620  p :     0.058338
      px      :     0.021640
      py      :     0.012079
 14 H s       :     0.904554  s :     0.904554
      pz      :     0.013833  p :     0.069375
      px      :     0.018151
      py      :     0.037391
 15 H s       :     0.909110  s :     0.909110
      pz      :     0.014120  p :     0.066554
      px      :     0.028733
      py      :     0.023700
 16 S s       :     5.557996  s :     5.557996
      pz      :     3.051222  p :     9.975427
      px      :     3.416913
      py      :     3.507292
      dz2     :     0.035948  d :     0.110374
      dxz     :     0.020350
      dyz     :     0.024392
      dx2y2   :     0.009937
      dxy     :     0.019747
 17 C s       :     2.922470  s :     2.922470
      pz      :     1.084571  p :     3.143634
      px      :     1.017923
      py      :     1.041140
      dz2     :     0.025123  d :     0.080462
      dxz     :     0.013779
      dyz     :     0.017722
      dx2y2   :     0.012046
      dxy     :     0.011792
 18 C s       :     2.868825  s :     2.868825
      pz      :     1.060485  p :     3.107091
      px      :     1.019154
      py      :     1.027452
      dz2     :     0.026503  d :     0.092675
      dxz     :     0.022267
      dyz     :     0.026125
      dx2y2   :     0.006087
      dxy     :     0.011694
 19 C s       :     2.867189  s :     2.867189
      pz      :     1.043571  p :     3.078076
      px      :     1.021088
      py      :     1.013416
      dz2     :     0.028658  d :     0.104563
      dxz     :     0.022547
      dyz     :     0.022480
      dx2y2   :     0.015063
      dxy     :     0.015815
 20 C s       :     2.912292  s :     2.912292
      pz      :     1.002319  p :     3.178079
      px      :     1.088673
      py      :     1.087087
      dz2     :     0.027565  d :     0.099980
      dxz     :     0.021939
      dyz     :     0.021208
      dx2y2   :     0.014884
      dxy     :     0.014384
 21 H s       :     0.894796  s :     0.894796
      pz      :     0.010012  p :     0.065528
      px      :     0.026551
      py      :     0.028966
 22 C s       :     2.818045  s :     2.818045
      pz      :     1.026332  p :     3.114812
      px      :     1.051426
      py      :     1.037055
      dz2     :     0.014647  d :     0.088990
      dxz     :     0.014246
      dyz     :     0.027624
      dx2y2   :     0.016683
      dxy     :     0.015789
 23 H s       :     0.905640  s :     0.905640
      pz      :     0.016002  p :     0.071030
      px      :     0.037249
      py      :     0.017779
 24 H s       :     0.899484  s :     0.899484
      pz      :     0.026904  p :     0.073349
      px      :     0.014857
      py      :     0.031587
 25 C s       :     2.833177  s :     2.833177
      pz      :     1.054841  p :     3.119818
      px      :     1.059495
      py      :     1.005482
      dz2     :     0.023582  d :     0.086757
      dxz     :     0.005548
      dyz     :     0.018983
      dx2y2   :     0.021895
      dxy     :     0.016748
 26 H s       :     0.905926  s :     0.905926
      pz      :     0.039008  p :     0.068794
      px      :     0.013641
      py      :     0.016145
 27 H s       :     0.904490  s :     0.904490
      pz      :     0.014780  p :     0.069376
      px      :     0.038948
      py      :     0.015648
 28 C s       :     2.822944  s :     2.822944
      pz      :     1.071249  p :     3.165067
      px      :     1.065269
      py      :     1.028549
      dz2     :     0.025203  d :     0.074088
      dxz     :     0.003857
      dyz     :     0.011229
      dx2y2   :     0.012721
      dxy     :     0.021077
 29 H s       :     0.913256  s :     0.913256
      pz      :     0.015116  p :     0.067600
      px      :     0.035056
      py      :     0.017427
 30 H s       :     0.905718  s :     0.905718
      pz      :     0.015277  p :     0.067269
      px      :     0.026597
      py      :     0.025396
 31 H s       :     0.911717  s :     0.911717
      pz      :     0.041551  p :     0.073186
      px      :     0.014981
      py      :     0.016653
 32 H s       :     0.896472  s :     0.896472
      pz      :     0.023063  p :     0.079783
      px      :     0.031690
      py      :     0.025029
 33 H s       :     0.899616  s :     0.899616
      pz      :     0.043997  p :     0.082622
      px      :     0.019305
      py      :     0.019320


                      *****************************
                      * MAYER POPULATION ANALYSIS *
                      *****************************

  NA   - Mulliken gross atomic population
  ZA   - Total nuclear charge
  QA   - Mulliken gross atomic charge
  VA   - Mayer's total valence
  BVA  - Mayer's bonded valence
  FA   - Mayer's free valence

  ATOM       NA         ZA         QA         VA         BVA        FA
  0 S     15.8951    16.0000     0.1049     2.4637     2.4637     0.0000
  1 C      6.0954     6.0000    -0.0954     3.8481     3.8481     0.0000
  2 C      6.0844     6.0000    -0.0844     4.0462     4.0462    -0.0000
  3 C      5.9832     6.0000     0.0168     3.9064     3.9064    -0.0000
  4 C      6.1705     6.0000    -0.1705     3.9501     3.9501     0.0000
  5 H      0.9727     1.0000     0.0273     1.0009     1.0009     0.0000
  6 C      5.8858     6.0000     0.1142     3.9404     3.9404    -0.0000
  7 H      0.9947     1.0000     0.0053     0.9973     0.9973     0.0000
  8 H      0.9987     1.0000     0.0013     0.9924     0.9924    -0.0000
  9 C      6.0968     6.0000    -0.0968     4.0579     4.0579     0.0000
 10 H      0.9662     1.0000     0.0338     0.9759     0.9759     0.0000
 11 H      0.9556     1.0000     0.0444     0.9787     0.9787     0.0000
 12 C      6.0684     6.0000    -0.0684     3.9954     3.9954    -0.0000
 13 H      0.9638     1.0000     0.0362     0.9890     0.9890     0.0000
 14 H      0.9554     1.0000     0.0446     0.9872     0.9872    -0.0000
 15 H      0.9739     1.0000     0.0261     0.9844     0.9844     0.0000
 16 S     15.9018    16.0000     0.0982     2.4100     2.4100    -0.0000
 17 C      6.0602     6.0000    -0.0602     3.8420     3.8420     0.0000
 18 C      6.0138     6.0000    -0.0138     3.9551     3.9551     0.0000
 19 C      6.1218     6.0000    -0.1218     4.0950     4.0950     0.0000
 20 C      6.1224     6.0000    -0.1224     3.9145     3.9145     0.0000
 21 H      0.9639     1.0000     0.0361     0.9954     0.9954     0.0000
 22 C      5.8557     6.0000     0.1443     3.9429     3.9429    -0.0000
 23 H      0.9937     1.0000     0.0063     0.9926     0.9926     0.0000
 24 H      0.9887     1.0000     0.0113     1.0088     1.0088    -0.0000
 25 C      6.0651     6.0000    -0.0651     4.0755     4.0755    -0.0000
 26 H      0.9653     1.0000     0.0347     0.9796     0.9796     0.0000
 27 H      0.9695     1.0000     0.0305     0.9825     0.9825    -0.0000
 28 C      6.0572     6.0000    -0.0572     4.0147     4.0147     0.0000
 29 H      0.9738     1.0000     0.0262     0.9861     0.9861     0.0000
 30 H      0.9658     1.0000     0.0342     0.9881     0.9881     0.0000
 31 H      0.9862     1.0000     0.0138     0.9999     0.9999     0.0000
 32 H      0.9682     1.0000     0.0318     1.0097     1.0097     0.0000
 33 H      0.9662     1.0000     0.0338     1.0045     1.0045    -0.0000

  Mayer bond orders larger than 0.100000
B(  0-S ,  1-C ) :   1.1274 B(  0-S ,  4-C ) :   1.1400 B(  1-C ,  2-C ) :   1.6348 
B(  1-C , 32-H ) :   0.9650 B(  2-C ,  3-C ) :   1.2457 B(  2-C ,  6-C ) :   1.0187 
B(  3-C ,  4-C ) :   1.5556 B(  3-C ,  5-H ) :   0.9817 B(  4-C , 20-C ) :   1.0788 
B(  6-C ,  7-H ) :   0.9363 B(  6-C ,  8-H ) :   0.9392 B(  6-C ,  9-C ) :   1.0499 
B(  9-C , 10-H ) :   0.9603 B(  9-C , 11-H ) :   0.9599 B(  9-C , 12-C ) :   1.0673 
B( 12-C , 13-H ) :   0.9753 B( 12-C , 14-H ) :   0.9764 B( 12-C , 15-H ) :   0.9768 
B( 16-S , 17-C ) :   1.1212 B( 16-S , 20-C ) :   1.1054 B( 17-C , 18-C ) :   1.6432 
B( 17-C , 33-H ) :   0.9691 B( 18-C , 19-C ) :   1.2427 B( 18-C , 21-H ) :   0.9732 
B( 19-C , 20-C ) :   1.6128 B( 19-C , 22-C ) :   1.0387 B( 22-C , 23-H ) :   0.9354 
B( 22-C , 24-H ) :   0.9233 B( 22-C , 25-C ) :   1.0494 B( 25-C , 26-H ) :   0.9634 
B( 25-C , 27-H ) :   0.9585 B( 25-C , 28-C ) :   1.0778 B( 28-C , 29-H ) :   0.9766 
B( 28-C , 30-H ) :   0.9734 B( 28-C , 31-H ) :   0.9772 

-------
TIMINGS
-------

Total SCF time: 0 days 0 hours 0 min 20 sec 

Total time                  ....      20.968 sec
Sum of individual times     ....      20.055 sec  ( 95.6%)

Fock matrix formation       ....      18.295 sec  ( 87.3%)
  XC integration            ....       1.590 sec  (  8.7% of F)
    Basis function eval.    ....       0.149 sec  (  9.4% of XC)
    Density eval.           ....       0.109 sec  (  6.9% of XC)
    XC-Functional eval.     ....       0.127 sec  (  8.0% of XC)
    XC-Potential eval.      ....       0.123 sec  (  7.7% of XC)
Diagonalization             ....       0.160 sec  (  0.8%)
Density matrix formation    ....       0.024 sec  (  0.1%)
Population analysis         ....       0.057 sec  (  0.3%)
Initial guess               ....       0.169 sec  (  0.8%)
Orbital Transformation      ....       0.000 sec  (  0.0%)
Orbital Orthonormalization  ....       0.000 sec  (  0.0%)
DIIS solution               ....       0.213 sec  (  1.0%)
SOSCF solution              ....       0.127 sec  (  0.6%)
Grid generation             ....       1.010 sec  (  4.8%)


-------------------------------------------------------------------------------
                          DFT DISPERSION CORRECTION                            
                                                                               
                              DFTD3 V3.1  Rev 1                                
                              USING zero damping                               
-------------------------------------------------------------------------------
The omegaB97X-D3 functional is recognized. Fit by Chai et al.
Active option DFTDOPT                   ...         3   

molecular C6(AA) [au] = 14216.861791 


            DFT-D V3
 parameters
 s6 scaling factor         :     1.0000 
 rs6 scaling factor        :     1.2810 
 s8 scaling factor         :     1.0000 
 rs8 scaling factor        :     1.0940 
 Damping factor alpha6     :    14.0000 
 Damping factor alpha8     :    16.0000 
 ad hoc parameters k1-k3   :    16.0000     1.3333    -4.0000 

 Edisp/kcal,au: -8.921523850225  -0.014217351717 
 E6   /kcal   :  -4.054343133 
 E8   /kcal   :  -4.867180717 
 % E8         :  54.555486250 

-------------------------   ----------------
Dispersion correction           -0.014217352
-------------------------   ----------------


-------------------------   --------------------
FINAL SINGLE POINT ENERGY     -1339.859813353921
-------------------------   --------------------


                            ***************************************
                            *     ORCA property calculations      *
                            ***************************************

                                    ---------------------
                                    Active property flags
                                    ---------------------
   (+) Dipole Moment


------------------------------------------------------------------------------
                       ORCA ELECTRIC PROPERTIES CALCULATION
------------------------------------------------------------------------------

Dipole Moment Calculation                       ... on
Quadrupole Moment Calculation                   ... off
Polarizability Calculation                      ... off
GBWName                                         ... config_168.gbw
Electron density file                           ... config_168.scfp
The origin for moment calculation is the CENTER OF MASS  = (-114.118468, -4.026830 -47.419198)

-------------
DIPOLE MOMENT
-------------
                                X             Y             Z
Electronic contribution:     12.43161      -4.25110      23.59100
Nuclear contribution   :    -12.89750       4.34003     -24.12736
                        -----------------------------------------
Total Dipole Moment    :     -0.46589       0.08893      -0.53636
                        -----------------------------------------
Magnitude (a.u.)       :      0.71599
Magnitude (Debye)      :      1.81990



--------------------
Rotational spectrum 
--------------------
 
Rotational constants in cm-1:     0.018824     0.007878     0.006813 
Rotational constants in MHz :   564.342490   236.162821   204.263293 

 Dipole components along the rotational axes: 
x,y,z [a.u.] :    -0.275735     0.622365     0.221980 
x,y,z [Debye]:    -0.700862     1.581926     0.564227 

 

Timings for individual modules:

Sum of individual times         ...       22.128 sec (=   0.369 min)
GTO integral calculation        ...        0.785 sec (=   0.013 min)   3.5 %
SCF iterations                  ...       21.343 sec (=   0.356 min)  96.5 %
                             ****ORCA TERMINATED NORMALLY****
TOTAL RUN TIME: 0 days 0 hours 0 minutes 22 seconds 813 msec
