
                                 *****************
                                 * O   R   C   A *
                                 *****************

           --- An Ab Initio, DFT and Semiempirical electronic structure package ---

                  #######################################################
                  #                        -***-                        #
                  #          Department of theory and spectroscopy      #
                  #               Directorship: Frank Neese             #
                  #        Max Planck Institute fuer Kohlenforschung    #
                  #                Kaiser Wilhelm Platz 1               #
                  #                 D-45470 Muelheim/Ruhr               #
                  #                      Germany                        #
                  #                                                     #
                  #                  All rights reserved                #
                  #                        -***-                        #
                  #######################################################


                         Program Version 4.2.1 -  RELEASE  -


 With contributions from (in alphabetic order):
   Daniel Aravena         : Magnetic Suceptibility
   Michael Atanasov       : Ab Initio Ligand Field Theory (pilot matlab implementation)
   Alexander A. Auer      : GIAO ZORA, VPT2
   Ute Becker             : Parallelization
   Giovanni Bistoni       : ED, misc. LED, open-shell LED, HFLD
   Martin Brehm           : Molecular dynamics
   Dmytro Bykov           : SCF Hessian
   Vijay G. Chilkuri      : MRCI spin determinant printing, contributions to CSF-ICE
   Dipayan Datta          : RHF DLPNO-CCSD density
   Achintya Kumar Dutta   : EOM-CC, STEOM-CC
   Dmitry Ganyushin       : Spin-Orbit,Spin-Spin,Magnetic field MRCI
   Miquel Garcia          : C-PCM Hessian, Gaussian charge scheme
   Yang Guo               : DLPNO-NEVPT2, CIM, IAO-localization
   Andreas Hansen         : Spin unrestricted coupled pair/coupled cluster methods
   Benjamin Helmich-Paris : CASSCF linear response (MC-RPA)
   Lee Huntington         : MR-EOM, pCC
   Robert Izsak           : Overlap fitted RIJCOSX, COSX-SCS-MP3, EOM
   Christian Kollmar      : KDIIS, OOCD, Brueckner-CCSD(T), CCSD density
   Simone Kossmann        : Meta GGA functionals, TD-DFT gradient, OOMP2, MP2 Hessian
   Martin Krupicka        : AUTO-CI
   Lucas Lang             : DCDCAS
   Dagmar Lenk            : GEPOL surface, SMD
   Dimitrios Liakos       : Extrapolation schemes; Compound Job, initial MDCI parallelization
   Dimitrios Manganas     : Further ROCIS development; embedding schemes
   Dimitrios Pantazis     : SARC Basis sets
   Taras Petrenko         : DFT Hessian,TD-DFT gradient, ASA, ECA, R-Raman, ABS, FL, XAS/XES, NRVS
   Peter Pinski           : DLPNO-MP2, DLPNO-MP2 Gradient
   Christoph Reimann      : Effective Core Potentials
   Marius Retegan         : Local ZFS, SOC
   Christoph Riplinger    : Optimizer, TS searches, QM/MM, DLPNO-CCSD(T), (RO)-DLPNO pert. Triples
   Tobias Risthaus        : Range-separated hybrids, TD-DFT gradient, RPA, STAB
   Michael Roemelt        : Original ROCIS implementation
   Masaaki Saitow         : Open-shell DLPNO-CCSD energy and density
   Barbara Sandhoefer     : DKH picture change effects
   Avijit Sen             : IP-ROCIS
   Kantharuban Sivalingam : CASSCF convergence, NEVPT2, FIC-MRCI
   Bernardo de Souza      : ESD, SOC TD-DFT
   Georgi Stoychev        : AutoAux, RI-MP2 NMR
   Willem Van den Heuvel  : Paramagnetic NMR
   Boris Wezisla          : Elementary symmetry handling
   Frank Wennmohs         : Technical directorship


 We gratefully acknowledge several colleagues who have allowed us to
 interface, adapt or use parts of their codes:
   Stefan Grimme, W. Hujo, H. Kruse,             : VdW corrections, initial TS optimization,
                  C. Bannwarth                     DFT functionals, gCP, sTDA/sTD-DF
   Ed Valeev, F. Pavosevic, A. Kumar             : LibInt (2-el integral package), F12 methods
   Garnet Chan, S. Sharma, J. Yang, R. Olivares  : DMRG
   Ulf Ekstrom                                   : XCFun DFT Library
   Mihaly Kallay                                 : mrcc  (arbitrary order and MRCC methods)
   Andreas Klamt, Michael Diedenhofen            : otool_cosmo (COSMO solvation model)
   Jiri Pittner, Ondrej Demel                    : Mk-CCSD
   Frank Weinhold                                : gennbo (NPA and NBO analysis)
   Christopher J. Cramer and Donald G. Truhlar   : smd solvation model
   Lars Goerigk                                  : TD-DFT with DH, B97 family of functionals
   V. Asgeirsson, H. Jonsson                     : NEB implementation
   FAccTs GmbH                                   : IRC, NEB, NEB-TS, Multilevel, MM, QM/MM, CI optimization
   S Lehtola, MJT Oliveira, MAL Marques          : LibXC Library


 Your calculation uses the libint2 library for the computation of 2-el integrals
 For citations please refer to: http://libint.valeyev.net

 Your ORCA version has been built with support for libXC version: 4.2.3
 For citations please refer to: https://tddft.org/programs/libxc/

 This ORCA versions uses:
   CBLAS   interface :  Fast vector & matrix operations
   LAPACKE interface :  Fast linear algebra routines
   SCALAPACK package :  Parallel linear algebra routines


Your calculation utilizes the atom-pairwise dispersion correction
with the zero-damping scheme (D30)
Cite in your paper:
S.Grimme, J.Antony, S.Ehrlich and H.Krieg, J.Chem.Phys., 132, (2010), 154104 
   

XCFun DFT library Copyright 2009-2010 Ulf Ekstrom and contributors.
See http://admol.org/xcfun for more information. This is free soft-
ware; see the source code for copying conditions. There is ABSOLUTELY
NO WARRANTY; not even for MERCHANTABILITY or FITNESS FOR A PARTICULAR
PURPOSE. For details see the documentation. Scientific users of this 
library should cite U. Ekstrom, L. Visscher, R. Bast, A. J. Thorvald-
sen and K. Ruud; J.Chem.Theor.Comp. 2010, DOI: 10.1021/ct100117s
XCFun Version 0.99 
----- Orbital basis set information -----
Your calculation utilizes the basis: def2-SVP
   F. Weigend and R. Ahlrichs, Phys. Chem. Chem. Phys. 7, 3297 (2005).

================================================================================
                                        WARNINGS
                       Please study these warnings very carefully!
================================================================================


INFO   : the flag for use of LIBINT has been found!

================================================================================
                                       INPUT FILE
================================================================================
NAME = config_9286.inp
|  1> ! wB97X-D3 SP def2-SVP
|  2> %pal
|  3> nprocs 24
|  4> end
|  5> 
|  6> * xyz 0 1
|  7> S 	 31.7264 	 -31.3615 	 -107.8 	 
|  8> C 	 32.6745 	 -31.8051 	 -106.402 	 
|  9> C 	 34.0355 	 -31.8731 	 -106.686 	 
| 10> C 	 34.1823 	 -31.6548 	 -108.11 	 
| 11> C 	 33.0415 	 -31.475 	 -108.891 	 
| 12> H 	 35.1722 	 -31.8462 	 -108.534 	 
| 13> C 	 35.043 	 -31.9729 	 -105.616 	 
| 14> H 	 35.8117 	 -32.6224 	 -105.981 	 
| 15> H 	 34.5885 	 -32.5231 	 -104.767 	 
| 16> C 	 35.5611 	 -30.6695 	 -105.039 	 
| 17> H 	 34.824 	 -30.0354 	 -104.407 	 
| 18> H 	 36.4199 	 -30.7224 	 -104.396 	 
| 19> C 	 36.1246 	 -29.7465 	 -106.187 	 
| 20> H 	 35.3883 	 -29.3374 	 -106.84 	 
| 21> H 	 36.5908 	 -28.8545 	 -105.706 	 
| 22> H 	 36.9838 	 -30.2081 	 -106.75 	 
| 23> S 	 32.8539 	 -29.6699 	 -110.822 	 
| 24> C 	 32.5518 	 -30.021 	 -112.479 	 
| 25> C 	 32.5167 	 -31.4195 	 -112.591 	 
| 26> C 	 32.8485 	 -32.1476 	 -111.419 	 
| 27> C 	 32.9381 	 -31.3039 	 -110.335 	 
| 28> H 	 32.2144 	 -31.9652 	 -113.508 	 
| 29> C 	 32.9658 	 -33.6946 	 -111.36 	 
| 30> H 	 31.9495 	 -34.0995 	 -111.272 	 
| 31> H 	 33.3856 	 -33.9386 	 -110.39 	 
| 32> C 	 33.727 	 -34.4094 	 -112.488 	 
| 33> H 	 34.7744 	 -34.3432 	 -112.333 	 
| 34> H 	 33.6293 	 -33.831 	 -113.402 	 
| 35> C 	 33.2151 	 -35.8156 	 -112.83 	 
| 36> H 	 33.2989 	 -36.3086 	 -111.868 	 
| 37> H 	 33.6957 	 -36.329 	 -113.674 	 
| 38> H 	 32.189 	 -35.8217 	 -113.058 	 
| 39> H 	 32.3134 	 -31.9505 	 -105.407 	 
| 40> H 	 32.32 	 -29.3402 	 -113.193 	 
| 41> *
| 42> 
| 43>                          ****END OF INPUT****
================================================================================

                       ****************************
                       * Single Point Calculation *
                       ****************************

---------------------------------
CARTESIAN COORDINATES (ANGSTROEM)
---------------------------------
  S     31.726400  -31.361500  -107.800000
  C     32.674500  -31.805100  -106.402000
  C     34.035500  -31.873100  -106.686000
  C     34.182300  -31.654800  -108.110000
  C     33.041500  -31.475000  -108.891000
  H     35.172200  -31.846200  -108.534000
  C     35.043000  -31.972900  -105.616000
  H     35.811700  -32.622400  -105.981000
  H     34.588500  -32.523100  -104.767000
  C     35.561100  -30.669500  -105.039000
  H     34.824000  -30.035400  -104.407000
  H     36.419900  -30.722400  -104.396000
  C     36.124600  -29.746500  -106.187000
  H     35.388300  -29.337400  -106.840000
  H     36.590800  -28.854500  -105.706000
  H     36.983800  -30.208100  -106.750000
  S     32.853900  -29.669900  -110.822000
  C     32.551800  -30.021000  -112.479000
  C     32.516700  -31.419500  -112.591000
  C     32.848500  -32.147600  -111.419000
  C     32.938100  -31.303900  -110.335000
  H     32.214400  -31.965200  -113.508000
  C     32.965800  -33.694600  -111.360000
  H     31.949500  -34.099500  -111.272000
  H     33.385600  -33.938600  -110.390000
  C     33.727000  -34.409400  -112.488000
  H     34.774400  -34.343200  -112.333000
  H     33.629300  -33.831000  -113.402000
  C     33.215100  -35.815600  -112.830000
  H     33.298900  -36.308600  -111.868000
  H     33.695700  -36.329000  -113.674000
  H     32.189000  -35.821700  -113.058000
  H     32.313400  -31.950500  -105.407000
  H     32.320000  -29.340200  -113.193000

----------------------------
CARTESIAN COORDINATES (A.U.)
----------------------------
  NO LB      ZA    FRAG     MASS         X           Y           Z
   0 S    16.0000    0    32.060   59.954207  -59.264646  -203.712477
   1 C     6.0000    0    12.011   61.745857  -60.102929  -201.070640
   2 C     6.0000    0    12.011   64.317774  -60.231430  -201.607322
   3 C     6.0000    0    12.011   64.595186  -59.818903  -204.298292
   4 C     6.0000    0    12.011   62.439386  -59.479130  -205.774168
   5 H     1.0000    0     1.008   66.465826  -60.180596  -205.099536
   6 C     6.0000    0    12.011   66.221673  -60.420025  -199.585315
   7 H     1.0000    0     1.008   67.674305  -61.647402  -200.275065
   8 H     1.0000    0     1.008   65.362792  -61.459752  -197.980938
   9 C     6.0000    0    12.011   67.200740  -57.956956  -198.494943
  10 H     1.0000    0     1.008   65.807823  -56.758680  -197.300636
  11 H     1.0000    0     1.008   68.823637  -58.056922  -197.279849
  12 C     6.0000    0    12.011   68.265601  -56.212738  -200.664349
  13 H     1.0000    0     1.008   66.874195  -55.439651  -201.898340
  14 H     1.0000    0     1.008   69.146591  -54.527103  -199.755391
  15 H     1.0000    0     1.008   69.889253  -57.085036  -201.728265
  16 S    16.0000    0    32.060   62.084873  -56.067985  -209.423230
  17 C     6.0000    0    12.011   61.513987  -56.731468  -212.554506
  18 C     6.0000    0    12.011   61.447658  -59.374250  -212.766155
  19 C     6.0000    0    12.011   62.074669  -60.750160  -210.551396
  20 C     6.0000    0    12.011   62.243988  -59.155798  -208.502933
  21 H     1.0000    0     1.008   60.876394  -60.405474  -214.499034
  22 C     6.0000    0    12.011   62.296334  -63.673566  -210.439902
  23 H     1.0000    0     1.008   60.375805  -64.438716  -210.273606
  24 H     1.0000    0     1.008   63.089641  -64.134659  -208.606868
  25 C     6.0000    0    12.011   63.734793  -65.024342  -212.571513
  26 H     1.0000    0     1.008   65.714092  -64.899243  -212.278606
  27 H     1.0000    0     1.008   63.550167  -63.931325  -214.298723
  28 C     6.0000    0    12.011   62.767443  -67.681675  -213.217800
  29 H     1.0000    0     1.008   62.925802  -68.613310  -211.399883
  30 H     1.0000    0     1.008   63.675645  -68.651861  -214.812729
  31 H     1.0000    0     1.008   60.828395  -67.693203  -213.648657
  32 H     1.0000    0     1.008   61.063476  -60.377695  -199.190363
  33 H     1.0000    0     1.008   61.075949  -55.444943  -213.903770

--------------------------------
INTERNAL COORDINATES (ANGSTROEM)
--------------------------------
 S      0   0   0     0.000000000000     0.00000000     0.00000000
 C      1   0   0     1.746447414038     0.00000000     0.00000000
 C      2   1   0     1.391977370506   112.32632152     0.00000000
 C      3   2   1     1.448095690899   107.00083078   355.18613793
 C      4   3   2     1.394171323762   119.16711077   358.04488575
 H      4   3   2     1.093760471950   116.52390965   190.25813464
 C      3   2   1     1.473063572966   121.59002428   168.07693772
 H      7   3   2     1.070502190563   106.53283851   143.00768655
 H      7   3   2     1.109094806588   108.02099734    30.95256004
 C      7   3   2     1.516643718874   116.85705417   271.67766415
 H     10   7   3     1.159665132700   117.39484778    69.00653573
 H     10   7   3     1.074143775293   117.29297315   191.15637293
 C     10   7   3     1.577138310358   110.36990347   305.12992776
 H     13  10   7     1.065790551656   115.07372265    70.26452627
 H     13  10   7     1.115512187293   107.66380702   185.98585909
 H     13  10   7     1.126174142839   113.36623148   299.20205297
 S      5   4   3     2.649969956433   123.64041828   138.21774195
 C     17   5   4     1.720518706670   125.11437428   119.77728869
 C     18  17   5     1.403416638066   106.53505394   356.33475264
 C     19  18  17     1.419085920584   116.07336671   354.30408309
 C     20  19  18     1.376558698349   110.55527599     9.48328797
 H     19  18  17     1.109081953690   124.27084499   171.89138677
 C     20  19  18     1.552562169448   124.07576769   184.46493419
 H     23  20  19     1.097521617099   107.49881840   279.43330885
 H     23  20  19     1.084743306041   106.69956168   170.91838915
 C     23  20  19     1.537123443319   118.22178355    44.93684790
 H     26  23  20     1.060874262106   110.65161340    79.60188461
 H     26  23  20     1.086042287390   108.98857083   330.24325164
 C     26  23  20     1.535058321368   115.10910368   211.75184782
 H     29  26  23     1.084211898108   101.13282409   302.95675331
 H     29  26  23     1.098586327969   116.96054271   176.23708699
 H     29  26  23     1.051143386984   112.28222004    54.84575985
 H      2   1   3     1.068437817564   126.62343095   175.80817056
 H     18  17   5     1.013417919715   125.56378430   168.75397576

---------------------------
INTERNAL COORDINATES (A.U.)
---------------------------
 S      0   0   0     0.000000000000     0.00000000     0.00000000
 C      1   0   0     3.300307319827     0.00000000     0.00000000
 C      2   1   0     2.630456014872   112.32632152     0.00000000
 C      3   2   1     2.736504271510   107.00083078   355.18613793
 C      4   3   2     2.634601985676   119.16711077   358.04488575
 H      4   3   2     2.066907748094   116.52390965   190.25813464
 C      3   2   1     2.783686730762   121.59002428   168.07693772
 H      7   3   2     2.022955965927   106.53283851   143.00768655
 H      7   3   2     2.095885441005   108.02099734    30.95256004
 C      7   3   2     2.866041271404   116.85705417   271.67766415
 H     10   7   3     2.191449507860   117.39484778    69.00653573
 H     10   7   3     2.029837563759   117.29297315   191.15637293
 C     10   7   3     2.980359481893   110.36990347   305.12992776
 H     13  10   7     2.014052258751   115.07372265    70.26452627
 H     13  10   7     2.108012533036   107.66380702   185.98585909
 H     13  10   7     2.128160709070   113.36623148   299.20205297
 S      5   4   3     5.007717480778   123.64041828   138.21774195
 C     17   5   4     3.251309163894   125.11437428   119.77728869
 C     18  17   5     2.652073097733   106.53505394   356.33475264
 C     19  18  17     2.681683750407   116.07336671   354.30408309
 C     20  19  18     2.601318947147   110.55527599     9.48328797
 H     19  18  17     2.095861152548   124.27084499   171.89138677
 C     20  19  18     2.933917306143   124.07576769   184.46493419
 H     23  20  19     2.074015282376   107.49881840   279.43330885
 H     23  20  19     2.049867774021   106.69956168   170.91838915
 C     23  20  19     2.904742341902   118.22178355    44.93684790
 H     26  23  20     2.004761817907   110.65161340    79.60188461
 H     26  23  20     2.052322493025   108.98857083   330.24325164
 C     26  23  20     2.900839826982   115.10910368   211.75184782
 H     29  26  23     2.048863558564   101.13282409   302.95675331
 H     29  26  23     2.076027294331   116.96054271   176.23708699
 H     29  26  23     1.986373128882   112.28222004    54.84575985
 H      2   1   3     2.019054866320   126.62343095   175.80817056
 H     18  17   5     1.915082327470   125.56378430   168.75397576

---------------------
BASIS SET INFORMATION
---------------------
There are 3 groups of distinct atoms

 Group   1 Type S   : 10s7p1d contracted to 4s3p1d pattern {5311/511/1}
 Group   2 Type C   : 7s4p1d contracted to 3s2p1d pattern {511/31/1}
 Group   3 Type H   : 4s1p contracted to 2s1p pattern {31/1}

Atom   0S    basis set group =>   1
Atom   1C    basis set group =>   2
Atom   2C    basis set group =>   2
Atom   3C    basis set group =>   2
Atom   4C    basis set group =>   2
Atom   5H    basis set group =>   3
Atom   6C    basis set group =>   2
Atom   7H    basis set group =>   3
Atom   8H    basis set group =>   3
Atom   9C    basis set group =>   2
Atom  10H    basis set group =>   3
Atom  11H    basis set group =>   3
Atom  12C    basis set group =>   2
Atom  13H    basis set group =>   3
Atom  14H    basis set group =>   3
Atom  15H    basis set group =>   3
Atom  16S    basis set group =>   1
Atom  17C    basis set group =>   2
Atom  18C    basis set group =>   2
Atom  19C    basis set group =>   2
Atom  20C    basis set group =>   2
Atom  21H    basis set group =>   3
Atom  22C    basis set group =>   2
Atom  23H    basis set group =>   3
Atom  24H    basis set group =>   3
Atom  25C    basis set group =>   2
Atom  26H    basis set group =>   3
Atom  27H    basis set group =>   3
Atom  28C    basis set group =>   2
Atom  29H    basis set group =>   3
Atom  30H    basis set group =>   3
Atom  31H    basis set group =>   3
Atom  32H    basis set group =>   3
Atom  33H    basis set group =>   3


           ************************************************************
           *        Program running with 24 parallel MPI-processes    *
           *              working on a common directory               *
           ************************************************************
------------------------------------------------------------------------------
                           ORCA GTO INTEGRAL CALCULATION
------------------------------------------------------------------------------

                         BASIS SET STATISTICS AND STARTUP INFO

 # of primitive gaussian shells          ...  294
 # of primitive gaussian functions       ...  534
 # of contracted shells                  ...  154
 # of contracted basis functions         ...  322
 Highest angular momentum                ...    2
 Maximum contraction depth               ...    5
 Integral package used                   ... LIBINT
 Integral threshhold            Thresh   ...  1.000e-10
 Primitive cut-off              TCut     ...  1.000e-11


------------------------------ INTEGRAL EVALUATION ----------------------------


 * One electron integrals 
 Pre-screening matrix                    ... done
 Shell pair data                         ... done (   0.003 sec)



           ************************************************************
           *        Program running with 24 parallel MPI-processes    *
           *              working on a common directory               *
           ************************************************************
-------------------------------------------------------------------------------
                                 ORCA SCF
-------------------------------------------------------------------------------

------------
SCF SETTINGS
------------
Hamiltonian:
 Density Functional     Method          .... DFT(GTOs)
 Exchange Functional    Exchange        .... WB97X-D3
 Correlation Functional Correlation     .... WB97X-D3
 Gradients option       PostSCFGGA      .... off
 Hybrid DFT is turned on
   Fraction HF Exchange ScalHFX         ....  0.195728
   Scaling of DF-GGA-X  ScalDFX         ....  0.000000
   Scaling of DF-GGA-C  ScalDFC         ....  1.000000
   Scaling of DF-LDA-C  ScalLDAC        ....  1.000000
   Perturbative correction              ....  0.000000
   Density functional embedding theory  .... OFF
 Long-range corrected/Screened/Range-Separated Hybrid DFT is turned on
   Amount of maximum screened exact exchange              ....  0.804272
   Range separation parameter mu (erf(mu*r12)/r12)        ....  0.250000


General Settings:
 Integral files         IntName         .... config_9286
 Hartree-Fock type      HFTyp           .... RHF
 Total Charge           Charge          ....    0
 Multiplicity           Mult            ....    1
 Number of Electrons    NEL             ....  134
 Basis Dimension        Dim             ....  322
 Nuclear Repulsion      ENuc            ....   1276.8390331438 Eh

Convergence Acceleration:
 DIIS                   CNVDIIS         .... on
   Start iteration      DIISMaxIt       ....    12
   Startup error        DIISStart       ....  0.200000
   # of expansion vecs  DIISMaxEq       ....     5
   Bias factor          DIISBfac        ....   1.050
   Max. coefficient     DIISMaxC        ....  10.000
 Newton-Raphson         CNVNR           .... off
 SOSCF                  CNVSOSCF        .... on
   Start iteration      SOSCFMaxIt      ....   150
   Startup grad/error   SOSCFStart      ....  0.003300
 Level Shifting         CNVShift        .... on
   Level shift para.    LevelShift      ....    0.2500
   Turn off err/grad.   ShiftErr        ....    0.0010
 Zerner damping         CNVZerner       .... off
 Static damping         CNVDamp         .... on
   Fraction old density DampFac         ....    0.7000
   Max. Damping (<1)    DampMax         ....    0.9800
   Min. Damping (>=0)   DampMin         ....    0.0000
   Turn off err/grad.   DampErr         ....    0.1000
 Fernandez-Rico         CNVRico         .... off

SCF Procedure:
 Maximum # iterations   MaxIter         ....   125
 SCF integral mode      SCFMode         .... Direct
   Integral package                     .... LIBINT
 Reset frequency        DirectResetFreq ....    20
 Integral Threshold     Thresh          ....  1.000e-10 Eh
 Primitive CutOff       TCut            ....  1.000e-11 Eh

Convergence Tolerance:
 Convergence Check Mode ConvCheckMode   .... Total+1el-Energy
 Convergence forced     ConvForced      .... 0
 Energy Change          TolE            ....  1.000e-06 Eh
 1-El. energy change                    ....  1.000e-03 Eh
 Orbital Gradient       TolG            ....  5.000e-05
 Orbital Rotation angle TolX            ....  5.000e-05
 DIIS Error             TolErr          ....  1.000e-06


Diagonalization of the overlap matrix:
Smallest eigenvalue                        ... 6.927e-04
Time for diagonalization                   ...    0.015 sec
Threshold for overlap eigenvalues          ... 1.000e-08
Number of eigenvalues below threshold      ... 0
Time for construction of square roots      ...    0.026 sec
Total time needed                          ...    0.041 sec

-------------------
DFT GRID GENERATION
-------------------

General Integration Accuracy     IntAcc      ...  4.340
Radial Grid Type                 RadialGrid  ... Gauss-Chebyshev
Angular Grid (max. acc.)         AngularGrid ... Lebedev-110
Angular grid pruning method      GridPruning ... 3 (G Style)
Weight generation scheme         WeightScheme... Becke
Basis function cutoff            BFCut       ...    1.0000e-10
Integration weight cutoff        WCut        ...    1.0000e-14
Grids for H and He will be reduced by one unit

# of grid points (after initial pruning)     ...  41088 (   0.0 sec)
# of grid points (after weights+screening)   ...  37063 (   0.0 sec)
nearest neighbour list constructed           ...    0.0 sec
Grid point re-assignment to atoms done       ...    0.0 sec
Grid point division into batches done        ...    0.0 sec
Reduced shell lists constructed in    0.1 sec

Total number of grid points                  ...    37063
Total number of batches                      ...      598
Average number of points per batch           ...       61
Average number of grid points per atom       ...     1090
Average number of shells per batch           ...    71.96 (46.73%)
Average number of basis functions per batch  ...   142.42 (44.23%)
Average number of large shells per batch     ...    46.27 (64.30%)
Average number of large basis fcns per batch ...    95.12 (66.78%)
Maximum spatial batch extension              ...  12.41, 16.46, 12.99 au
Average spatial batch extension              ...   0.16,  0.18,  0.16 au

Time for grid setup =    0.148 sec

------------------------------
INITIAL GUESS: MODEL POTENTIAL
------------------------------
Loading Hartree-Fock densities                     ... done
Calculating cut-offs                               ... done
Setting up the integral package                    ... done
Initializing the effective Hamiltonian             ... done
Starting the Coulomb interaction                   ... done (   0.0 sec)
Reading the grid                                   ... done
Mapping shells                                     ... done
Starting the XC term evaluation                    ... done (   0.0 sec)
  promolecular density results
     # of electrons  =    133.988457402
     EX              =   -126.745408454
     EC              =     -4.620836950
     EX+EC           =   -131.366245404
Transforming the Hamiltonian                       ... done (   0.0 sec)
Diagonalizing the Hamiltonian                      ... done (   0.0 sec)
Back transforming the eigenvectors                 ... done (   0.0 sec)
Now organizing SCF variables                       ... done
                      ------------------
                      INITIAL GUESS DONE (   0.3 sec)
                      ------------------
--------------
SCF ITERATIONS
--------------
ITER       Energy         Delta-E        Max-DP      RMS-DP      [F,P]     Damp
               ***  Starting incremental Fock matrix formation  ***
  0  -1339.4294549659   0.000000000000 0.06497803  0.00153778  0.1630709 0.7000
  1  -1339.6075018418  -0.178046875977 0.04380941  0.00113065  0.0991448 0.7000
                               ***Turning on DIIS***
  2  -1339.6952793873  -0.087777545488 0.09384541  0.00216671  0.0519346 0.0000
  3  -1339.8294429009  -0.134163513531 0.04214279  0.00093169  0.0413708 0.0000
  4  -1339.8566490271  -0.027206126250 0.00736816  0.00019180  0.0074901 0.0000
                      *** Initiating the SOSCF procedure ***
                           *** Shutting down DIIS ***
                      *** Re-Reading the Fockian *** 
                      *** Removing any level shift *** 
ITER      Energy       Delta-E        Grad      Rot      Max-DP    RMS-DP
  5  -1339.85746725  -0.0008182207  0.001590  0.001590  0.003463  0.000096
               *** Restarting incremental Fock matrix formation ***
  6  -1339.85763450  -0.0001672565  0.001157  0.002996  0.003118  0.000064
  7  -1339.85769099  -0.0000564871  0.000838  0.004540  0.004194  0.000067
  8  -1339.85770698  -0.0000159860  0.000374  0.000874  0.000789  0.000023
  9  -1339.85771210  -0.0000051261  0.000154  0.000367  0.000384  0.000009
 10  -1339.85771265  -0.0000005462  0.000065  0.000217  0.000194  0.000003
                 **** Energy Check signals convergence ****
              ***Rediagonalizing the Fockian in SOSCF/NRSCF***

               *****************************************************
               *                     SUCCESS                       *
               *           SCF CONVERGED AFTER  11 CYCLES          *
               *****************************************************

Setting up the final grid:

General Integration Accuracy     IntAcc      ...  4.670
Radial Grid Type                 RadialGrid  ... Gauss-Chebyshev
Angular Grid (max. acc.)         AngularGrid ... Lebedev-302
Angular grid pruning method      GridPruning ... 3 (G Style)
Weight generation scheme         WeightScheme... Becke
Basis function cutoff            BFCut       ...    1.0000e-10
Integration weight cutoff        WCut        ...    1.0000e-14
Grids for H and He will be reduced by one unit

# of grid points (after initial pruning)     ... 161752 (   0.0 sec)
# of grid points (after weights+screening)   ... 143100 (   0.1 sec)
nearest neighbour list constructed           ...    0.0 sec
Grid point re-assignment to atoms done       ...    0.0 sec
Grid point division into batches done        ...    0.5 sec
Reduced shell lists constructed in    0.5 sec

Total number of grid points                  ...   143100
Total number of batches                      ...     2253
Average number of points per batch           ...       63
Average number of grid points per atom       ...     4209
Average number of shells per batch           ...    65.46 (42.51%)
Average number of basis functions per batch  ...   128.35 (39.86%)
Average number of large shells per batch     ...    40.72 (62.20%)
Average number of large basis fcns per batch ...    82.97 (64.64%)
Maximum spatial batch extension              ...  12.71, 15.16, 12.00 au
Average spatial batch extension              ...   0.11,  0.12,  0.11 au

Final grid set up in    0.9 sec
Final integration                            ... done (   0.3 sec)
Change in XC energy                          ...     0.006165091
Integrated number of electrons               ...   134.000049000
Previous integrated no of electrons          ...   133.999571129

----------------
TOTAL SCF ENERGY
----------------

Total Energy       :        -1339.85154775 Eh          -36459.21416 eV

Components:
Nuclear Repulsion  :         1276.83903314 Eh           34744.55647 eV
Electronic Energy  :        -2616.69058090 Eh          -71203.77064 eV
One Electron Energy:        -4370.25011431 Eh         -118920.55141 eV
Two Electron Energy:         1753.55953341 Eh           47716.78078 eV

Virial components:
Potential Energy   :        -2671.51755424 Eh          -72695.68843 eV
Kinetic Energy     :         1331.66600649 Eh           36236.47426 eV
Virial Ratio       :            2.00614684


DFT components:
N(Alpha)           :       67.000024499963 electrons
N(Beta)            :       67.000024499963 electrons
N(Total)           :      134.000048999926 electrons
E(XC)              :      -94.288263939026 Eh       
DFET-embed. en.    :        0.000000000000 Eh       

---------------
SCF CONVERGENCE
---------------

  Last Energy change         ...   -1.9318e-07  Tolerance :   1.0000e-06
  Last MAX-Density change    ...    3.3806e-05  Tolerance :   1.0000e-05
  Last RMS-Density change    ...    5.7583e-07  Tolerance :   1.0000e-06
  Last Orbital Gradient      ...    5.1957e-06  Tolerance :   5.0000e-05
  Last Orbital Rotation      ...    1.7460e-05  Tolerance :   5.0000e-05

             **** THE GBW FILE WAS UPDATED (config_9286.gbw) ****
             **** DENSITY FILE WAS UPDATED (config_9286.scfp) ****
             **** ENERGY FILE WAS UPDATED (config_9286.en.tmp) ****
             **** THE GBW FILE WAS UPDATED (config_9286.gbw) ****
             **** DENSITY FILE WAS UPDATED (config_9286.scfp) ****
----------------
ORBITAL ENERGIES
----------------

  NO   OCC          E(Eh)            E(eV) 
   0   2.0000     -88.965841     -2420.8836 
   1   2.0000     -88.962290     -2420.7870 
   2   2.0000     -10.328456      -281.0516 
   3   2.0000     -10.322686      -280.8946 
   4   2.0000     -10.312385      -280.6143 
   5   2.0000     -10.312073      -280.6058 
   6   2.0000     -10.304092      -280.3886 
   7   2.0000     -10.299364      -280.2599 
   8   2.0000     -10.296590      -280.1845 
   9   2.0000     -10.296186      -280.1735 
  10   2.0000     -10.295832      -280.1638 
  11   2.0000     -10.293964      -280.1130 
  12   2.0000     -10.293689      -280.1055 
  13   2.0000     -10.281845      -279.7832 
  14   2.0000     -10.277484      -279.6646 
  15   2.0000     -10.275108      -279.5999 
  16   2.0000      -8.081098      -219.8978 
  17   2.0000      -8.078406      -219.8246 
  18   2.0000      -6.039544      -164.3443 
  19   2.0000      -6.036798      -164.2696 
  20   2.0000      -6.035380      -164.2311 
  21   2.0000      -6.032451      -164.1513 
  22   2.0000      -6.032026      -164.1398 
  23   2.0000      -6.029459      -164.0699 
  24   2.0000      -1.013431       -27.5769 
  25   2.0000      -0.989929       -26.9373 
  26   2.0000      -0.916963       -24.9518 
  27   2.0000      -0.907422       -24.6922 
  28   2.0000      -0.868335       -23.6286 
  29   2.0000      -0.851912       -23.1817 
  30   2.0000      -0.840447       -22.8697 
  31   2.0000      -0.813241       -22.1294 
  32   2.0000      -0.784084       -21.3360 
  33   2.0000      -0.776171       -21.1207 
  34   2.0000      -0.708218       -19.2716 
  35   2.0000      -0.703621       -19.1465 
  36   2.0000      -0.700778       -19.0691 
  37   2.0000      -0.662618       -18.0308 
  38   2.0000      -0.637916       -17.3586 
  39   2.0000      -0.616886       -16.7863 
  40   2.0000      -0.602395       -16.3920 
  41   2.0000      -0.573310       -15.6006 
  42   2.0000      -0.555942       -15.1279 
  43   2.0000      -0.554269       -15.0824 
  44   2.0000      -0.542336       -14.7577 
  45   2.0000      -0.537680       -14.6310 
  46   2.0000      -0.519280       -14.1303 
  47   2.0000      -0.513961       -13.9856 
  48   2.0000      -0.507323       -13.8050 
  49   2.0000      -0.501062       -13.6346 
  50   2.0000      -0.497052       -13.5255 
  51   2.0000      -0.473097       -12.8736 
  52   2.0000      -0.470735       -12.8094 
  53   2.0000      -0.461980       -12.5711 
  54   2.0000      -0.457292       -12.4436 
  55   2.0000      -0.444739       -12.1020 
  56   2.0000      -0.441228       -12.0064 
  57   2.0000      -0.439514       -11.9598 
  58   2.0000      -0.431383       -11.7385 
  59   2.0000      -0.424947       -11.5634 
  60   2.0000      -0.419098       -11.4042 
  61   2.0000      -0.413508       -11.2521 
  62   2.0000      -0.406524       -11.0621 
  63   2.0000      -0.332562        -9.0495 
  64   2.0000      -0.325915        -8.8686 
  65   2.0000      -0.324327        -8.8254 
  66   2.0000      -0.311693        -8.4816 
  67   0.0000       0.046989         1.2786 
  68   0.0000       0.053304         1.4505 
  69   0.0000       0.118220         3.2169 
  70   0.0000       0.125806         3.4234 
  71   0.0000       0.133868         3.6427 
  72   0.0000       0.136630         3.7179 
  73   0.0000       0.153437         4.1752 
  74   0.0000       0.155016         4.2182 
  75   0.0000       0.166105         4.5199 
  76   0.0000       0.174283         4.7425 
  77   0.0000       0.184258         5.0139 
  78   0.0000       0.191883         5.2214 
  79   0.0000       0.196347         5.3429 
  80   0.0000       0.199614         5.4318 
  81   0.0000       0.209947         5.7130 
  82   0.0000       0.216299         5.8858 
  83   0.0000       0.222235         6.0473 
  84   0.0000       0.222974         6.0674 
  85   0.0000       0.228466         6.2169 
  86   0.0000       0.233128         6.3437 
  87   0.0000       0.239684         6.5221 
  88   0.0000       0.241755         6.5785 
  89   0.0000       0.245777         6.6879 
  90   0.0000       0.253135         6.8882 
  91   0.0000       0.262356         7.1391 
  92   0.0000       0.272134         7.4052 
  93   0.0000       0.289362         7.8739 
  94   0.0000       0.306172         8.3314 
  95   0.0000       0.312332         8.4990 
  96   0.0000       0.332265         9.0414 
  97   0.0000       0.343656         9.3514 
  98   0.0000       0.351336         9.5603 
  99   0.0000       0.361507         9.8371 
 100   0.0000       0.388321        10.5668 
 101   0.0000       0.397598        10.8192 
 102   0.0000       0.407871        11.0987 
 103   0.0000       0.418606        11.3909 
 104   0.0000       0.437249        11.8981 
 105   0.0000       0.444663        12.0999 
 106   0.0000       0.466585        12.6964 
 107   0.0000       0.477693        12.9987 
 108   0.0000       0.491898        13.3852 
 109   0.0000       0.492098        13.3907 
 110   0.0000       0.497329        13.5330 
 111   0.0000       0.504370        13.7246 
 112   0.0000       0.521155        14.1814 
 113   0.0000       0.525045        14.2872 
 114   0.0000       0.528480        14.3807 
 115   0.0000       0.536205        14.5909 
 116   0.0000       0.539549        14.6819 
 117   0.0000       0.545186        14.8353 
 118   0.0000       0.560371        15.2485 
 119   0.0000       0.569557        15.4984 
 120   0.0000       0.575280        15.6542 
 121   0.0000       0.581866        15.8334 
 122   0.0000       0.598043        16.2736 
 123   0.0000       0.613889        16.7048 
 124   0.0000       0.621111        16.9013 
 125   0.0000       0.623600        16.9690 
 126   0.0000       0.634132        17.2556 
 127   0.0000       0.641571        17.4580 
 128   0.0000       0.646002        17.5786 
 129   0.0000       0.662757        18.0345 
 130   0.0000       0.666884        18.1468 
 131   0.0000       0.687613        18.7109 
 132   0.0000       0.691624        18.8201 
 133   0.0000       0.698174        18.9983 
 134   0.0000       0.705256        19.1910 
 135   0.0000       0.712068        19.3764 
 136   0.0000       0.716134        19.4870 
 137   0.0000       0.720192        19.5974 
 138   0.0000       0.728831        19.8325 
 139   0.0000       0.736241        20.0341 
 140   0.0000       0.741383        20.1741 
 141   0.0000       0.748317        20.3627 
 142   0.0000       0.753008        20.4904 
 143   0.0000       0.756850        20.5949 
 144   0.0000       0.759974        20.6799 
 145   0.0000       0.768384        20.9088 
 146   0.0000       0.773553        21.0494 
 147   0.0000       0.776774        21.1371 
 148   0.0000       0.782941        21.3049 
 149   0.0000       0.784282        21.3414 
 150   0.0000       0.788752        21.4630 
 151   0.0000       0.791835        21.5469 
 152   0.0000       0.794190        21.6110 
 153   0.0000       0.800955        21.7951 
 154   0.0000       0.803501        21.8644 
 155   0.0000       0.808162        21.9912 
 156   0.0000       0.811290        22.0763 
 157   0.0000       0.812993        22.1227 
 158   0.0000       0.819199        22.2915 
 159   0.0000       0.822982        22.3945 
 160   0.0000       0.827189        22.5090 
 161   0.0000       0.834289        22.7021 
 162   0.0000       0.842196        22.9173 
 163   0.0000       0.846800        23.0426 
 164   0.0000       0.847726        23.0678 
 165   0.0000       0.862301        23.4644 
 166   0.0000       0.866704        23.5842 
 167   0.0000       0.877113        23.8675 
 168   0.0000       0.877886        23.8885 
 169   0.0000       0.898467        24.4485 
 170   0.0000       0.901902        24.5420 
 171   0.0000       0.917745        24.9731 
 172   0.0000       0.937883        25.5211 
 173   0.0000       0.952358        25.9150 
 174   0.0000       0.966712        26.3056 
 175   0.0000       0.971811        26.4443 
 176   0.0000       0.988707        26.9041 
 177   0.0000       1.003186        27.2981 
 178   0.0000       1.007874        27.4256 
 179   0.0000       1.036564        28.2064 
 180   0.0000       1.043603        28.3979 
 181   0.0000       1.067302        29.0428 
 182   0.0000       1.097268        29.8582 
 183   0.0000       1.107070        30.1249 
 184   0.0000       1.120957        30.5028 
 185   0.0000       1.143258        31.1096 
 186   0.0000       1.147028        31.2122 
 187   0.0000       1.167297        31.7638 
 188   0.0000       1.177474        32.0407 
 189   0.0000       1.192309        32.4444 
 190   0.0000       1.221113        33.2282 
 191   0.0000       1.244404        33.8619 
 192   0.0000       1.266593        34.4658 
 193   0.0000       1.272331        34.6219 
 194   0.0000       1.294225        35.2177 
 195   0.0000       1.303093        35.4590 
 196   0.0000       1.325428        36.0667 
 197   0.0000       1.333369        36.2828 
 198   0.0000       1.342804        36.5396 
 199   0.0000       1.350609        36.7519 
 200   0.0000       1.367878        37.2219 
 201   0.0000       1.386142        37.7188 
 202   0.0000       1.405117        38.2352 
 203   0.0000       1.443921        39.2911 
 204   0.0000       1.457141        39.6508 
 205   0.0000       1.464698        39.8565 
 206   0.0000       1.480727        40.2926 
 207   0.0000       1.492567        40.6148 
 208   0.0000       1.533540        41.7297 
 209   0.0000       1.545973        42.0681 
 210   0.0000       1.587204        43.1900 
 211   0.0000       1.595361        43.4120 
 212   0.0000       1.635769        44.5115 
 213   0.0000       1.642824        44.7035 
 214   0.0000       1.647641        44.8346 
 215   0.0000       1.659705        45.1629 
 216   0.0000       1.667544        45.3762 
 217   0.0000       1.710260        46.5385 
 218   0.0000       1.740033        47.3487 
 219   0.0000       1.772307        48.2269 
 220   0.0000       1.784463        48.5577 
 221   0.0000       1.788590        48.6700 
 222   0.0000       1.804794        49.1109 
 223   0.0000       1.829907        49.7943 
 224   0.0000       1.832154        49.8554 
 225   0.0000       1.842334        50.1325 
 226   0.0000       1.848985        50.3134 
 227   0.0000       1.853265        50.4299 
 228   0.0000       1.860254        50.6201 
 229   0.0000       1.865379        50.7595 
 230   0.0000       1.878459        51.1155 
 231   0.0000       1.883712        51.2584 
 232   0.0000       1.890859        51.4529 
 233   0.0000       1.895784        51.5869 
 234   0.0000       1.905074        51.8397 
 235   0.0000       1.913743        52.0756 
 236   0.0000       1.920359        52.2556 
 237   0.0000       1.923684        52.3461 
 238   0.0000       1.930958        52.5440 
 239   0.0000       1.935017        52.6545 
 240   0.0000       1.947776        53.0017 
 241   0.0000       1.959374        53.3173 
 242   0.0000       1.963791        53.4375 
 243   0.0000       1.990562        54.1659 
 244   0.0000       1.994103        54.2623 
 245   0.0000       1.998268        54.3756 
 246   0.0000       2.004696        54.5506 
 247   0.0000       2.011283        54.7298 
 248   0.0000       2.020768        54.9879 
 249   0.0000       2.043520        55.6070 
 250   0.0000       2.048557        55.7441 
 251   0.0000       2.063065        56.1389 
 252   0.0000       2.070712        56.3469 
 253   0.0000       2.075454        56.4760 
 254   0.0000       2.084335        56.7176 
 255   0.0000       2.096816        57.0573 
 256   0.0000       2.103254        57.2324 
 257   0.0000       2.134481        58.0822 
 258   0.0000       2.145126        58.3718 
 259   0.0000       2.156906        58.6924 
 260   0.0000       2.170018        59.0492 
 261   0.0000       2.172772        59.1241 
 262   0.0000       2.193278        59.6821 
 263   0.0000       2.211960        60.1905 
 264   0.0000       2.221273        60.4439 
 265   0.0000       2.229131        60.6577 
 266   0.0000       2.250008        61.2258 
 267   0.0000       2.264418        61.6180 
 268   0.0000       2.289148        62.2909 
 269   0.0000       2.295852        62.4733 
 270   0.0000       2.315871        63.0181 
 271   0.0000       2.340465        63.6873 
 272   0.0000       2.378793        64.7302 
 273   0.0000       2.387925        64.9787 
 274   0.0000       2.411087        65.6090 
 275   0.0000       2.428131        66.0728 
 276   0.0000       2.437297        66.3222 
 277   0.0000       2.454253        66.7836 
 278   0.0000       2.456732        66.8511 
 279   0.0000       2.465618        67.0929 
 280   0.0000       2.498071        67.9760 
 281   0.0000       2.504118        68.1405 
 282   0.0000       2.504722        68.1569 
 283   0.0000       2.522225        68.6332 
 284   0.0000       2.547558        69.3226 
 285   0.0000       2.559388        69.6445 
 286   0.0000       2.575774        70.0904 
 287   0.0000       2.583898        70.3114 
 288   0.0000       2.606205        70.9184 
 289   0.0000       2.623366        71.3854 
 290   0.0000       2.640441        71.8500 
 291   0.0000       2.646675        72.0197 
 292   0.0000       2.663442        72.4759 
 293   0.0000       2.685170        73.0672 
 294   0.0000       2.708036        73.6894 
 295   0.0000       2.746295        74.7305 
 296   0.0000       2.767892        75.3182 
 297   0.0000       2.777294        75.5740 
 298   0.0000       2.789137        75.8963 
 299   0.0000       2.814251        76.5797 
 300   0.0000       2.853417        77.6454 
 301   0.0000       2.888738        78.6066 
 302   0.0000       2.894410        78.7609 
 303   0.0000       2.917171        79.3803 
 304   0.0000       2.966431        80.7207 
 305   0.0000       2.977681        81.0268 
 306   0.0000       2.987834        81.3031 
 307   0.0000       3.007106        81.8275 
 308   0.0000       3.040838        82.7454 
 309   0.0000       3.046413        82.8971 
 310   0.0000       3.075258        83.6820 
 311   0.0000       3.090704        84.1023 
 312   0.0000       3.117394        84.8286 
 313   0.0000       3.128616        85.1340 
 314   0.0000       3.143670        85.5436 
 315   0.0000       3.164159        86.1011 
 316   0.0000       3.198605        87.0385 
 317   0.0000       3.211774        87.3968 
 318   0.0000       3.235472        88.0417 
 319   0.0000       3.249555        88.4249 
 320   0.0000       3.347364        91.0864 
 321   0.0000       3.442263        93.6687 

                    ********************************
                    * MULLIKEN POPULATION ANALYSIS *
                    ********************************

-----------------------
MULLIKEN ATOMIC CHARGES
-----------------------
   0 S :    0.129930
   1 C :   -0.107966
   2 C :   -0.130317
   3 C :    0.052724
   4 C :   -0.178635
   5 H :    0.009284
   6 C :    0.106286
   7 H :    0.022444
   8 H :    0.025044
   9 C :   -0.068384
  10 H :    0.042403
  11 H :    0.028910
  12 C :   -0.104076
  13 H :    0.053315
  14 H :    0.026276
  15 H :    0.037269
  16 S :    0.120989
  17 C :   -0.047792
  18 C :   -0.066539
  19 C :   -0.020460
  20 C :   -0.194086
  21 H :    0.031907
  22 C :    0.089607
  23 H :    0.034016
  24 H :    0.023374
  25 C :   -0.068977
  26 H :    0.025533
  27 H :    0.014667
  28 C :   -0.039786
  29 H :    0.030945
  30 H :    0.044023
  31 H :    0.018927
  32 H :    0.035721
  33 H :    0.023424
Sum of atomic charges:   -0.0000000

--------------------------------
MULLIKEN REDUCED ORBITAL CHARGES
--------------------------------
  0 S s       :     5.837626  s :     5.837626
      pz      :     2.967736  p :     9.918249
      px      :     3.336429
      py      :     3.614084
      dz2     :     0.017038  d :     0.114195
      dxz     :     0.044513
      dyz     :     0.026508
      dx2y2   :     0.013449
      dxy     :     0.012689
  1 C s       :     3.177715  s :     3.177715
      pz      :     0.863100  p :     2.896221
      px      :     0.956376
      py      :     1.076745
      dz2     :     0.007121  d :     0.034030
      dxz     :     0.012114
      dyz     :     0.003268
      dx2y2   :     0.004443
      dxy     :     0.007085
  2 C s       :     3.093928  s :     3.093928
      pz      :     1.000576  p :     2.992291
      px      :     0.986382
      py      :     1.005334
      dz2     :     0.012484  d :     0.044097
      dxz     :     0.011418
      dyz     :     0.006469
      dx2y2   :     0.006239
      dxy     :     0.007487
  3 C s       :     3.187216  s :     3.187216
      pz      :     0.888961  p :     2.725803
      px      :     0.838251
      py      :     0.998591
      dz2     :     0.008629  d :     0.034256
      dxz     :     0.010345
      dyz     :     0.006458
      dx2y2   :     0.004677
      dxy     :     0.004146
  4 C s       :     3.062454  s :     3.062454
      pz      :     0.994592  p :     3.070745
      px      :     0.950983
      py      :     1.125170
      dz2     :     0.009408  d :     0.045436
      dxz     :     0.018071
      dyz     :     0.005823
      dx2y2   :     0.004907
      dxy     :     0.007226
  5 H s       :     0.967482  s :     0.967482
      pz      :     0.005146  p :     0.023234
      px      :     0.012794
      py      :     0.005295
  6 C s       :     2.932380  s :     2.932380
      pz      :     0.943028  p :     2.923794
      px      :     0.982010
      py      :     0.998756
      dz2     :     0.005067  d :     0.037540
      dxz     :     0.009811
      dyz     :     0.008650
      dx2y2   :     0.004932
      dxy     :     0.009080
  7 H s       :     0.953422  s :     0.953422
      pz      :     0.006173  p :     0.024134
      px      :     0.009889
      py      :     0.008073
  8 H s       :     0.952452  s :     0.952452
      pz      :     0.009854  p :     0.022505
      px      :     0.005913
      py      :     0.006737
  9 C s       :     3.065600  s :     3.065600
      pz      :     1.003060  p :     2.967620
      px      :     0.997703
      py      :     0.966857
      dz2     :     0.003611  d :     0.035164
      dxz     :     0.009779
      dyz     :     0.008617
      dx2y2   :     0.006305
      dxy     :     0.006852
 10 H s       :     0.937554  s :     0.937554
      pz      :     0.006254  p :     0.020043
      px      :     0.007839
      py      :     0.005950
 11 H s       :     0.946888  s :     0.946888
      pz      :     0.008718  p :     0.024202
      px      :     0.011394
      py      :     0.004090
 12 C s       :     3.056777  s :     3.056777
      pz      :     1.007768  p :     3.019880
      px      :     1.010054
      py      :     1.002058
      dz2     :     0.002581  d :     0.027419
      dxz     :     0.008667
      dyz     :     0.007063
      dx2y2   :     0.003115
      dxy     :     0.005992
 13 H s       :     0.922186  s :     0.922186
      pz      :     0.008474  p :     0.024498
      px      :     0.009684
      py      :     0.006341
 14 H s       :     0.951005  s :     0.951005
      pz      :     0.006141  p :     0.022719
      px      :     0.006496
      py      :     0.010082
 15 H s       :     0.940959  s :     0.940959
      pz      :     0.006249  p :     0.021772
      px      :     0.009744
      py      :     0.005779
 16 S s       :     5.836853  s :     5.836853
      pz      :     3.067759  p :     9.921115
      px      :     3.628523
      py      :     3.224833
      dz2     :     0.037601  d :     0.121043
      dxz     :     0.023397
      dyz     :     0.023324
      dx2y2   :     0.020475
      dxy     :     0.016245
 17 C s       :     3.136036  s :     3.136036
      pz      :     0.847908  p :     2.877462
      px      :     1.091566
      py      :     0.937988
      dz2     :     0.009131  d :     0.034295
      dxz     :     0.004684
      dyz     :     0.010180
      dx2y2   :     0.004350
      dxy     :     0.005949
 18 C s       :     3.190955  s :     3.190955
      pz      :     0.954005  p :     2.841116
      px      :     1.011025
      py      :     0.876086
      dz2     :     0.007558  d :     0.034469
      dxz     :     0.004035
      dyz     :     0.010793
      dx2y2   :     0.005118
      dxy     :     0.006965
 19 C s       :     3.040286  s :     3.040286
      pz      :     0.969029  p :     2.936887
      px      :     0.986449
      py      :     0.981409
      dz2     :     0.008424  d :     0.043288
      dxz     :     0.007338
      dyz     :     0.014264
      dx2y2   :     0.005684
      dxy     :     0.007577
 20 C s       :     3.073325  s :     3.073325
      pz      :     1.020044  p :     3.074493
      px      :     1.142831
      py      :     0.911618
      dz2     :     0.013526  d :     0.046269
      dxz     :     0.006059
      dyz     :     0.013192
      dx2y2   :     0.006220
      dxy     :     0.007271
 21 H s       :     0.945678  s :     0.945678
      pz      :     0.011274  p :     0.022414
      px      :     0.005390
      py      :     0.005750
 22 C s       :     2.937071  s :     2.937071
      pz      :     0.987843  p :     2.939199
      px      :     1.017115
      py      :     0.934241
      dz2     :     0.009580  d :     0.034122
      dxz     :     0.004842
      dyz     :     0.005139
      dx2y2   :     0.008302
      dxy     :     0.006260
 23 H s       :     0.942845  s :     0.942845
      pz      :     0.005104  p :     0.023139
      px      :     0.012905
      py      :     0.005130
 24 H s       :     0.952887  s :     0.952887
      pz      :     0.012576  p :     0.023740
      px      :     0.006711
      py      :     0.004452
 25 C s       :     3.037260  s :     3.037260
      pz      :     0.991271  p :     2.994777
      px      :     1.024059
      py      :     0.979447
      dz2     :     0.007569  d :     0.036939
      dxz     :     0.003985
      dyz     :     0.010167
      dx2y2   :     0.010347
      dxy     :     0.004871
 26 H s       :     0.950429  s :     0.950429
      pz      :     0.005516  p :     0.024038
      px      :     0.014307
      py      :     0.004215
 27 H s       :     0.961558  s :     0.961558
      pz      :     0.011111  p :     0.023776
      px      :     0.005436
      py      :     0.007228
 28 C s       :     3.003787  s :     3.003787
      pz      :     0.999080  p :     3.007203
      px      :     1.021166
      py      :     0.986957
      dz2     :     0.005884  d :     0.028797
      dxz     :     0.002983
      dyz     :     0.008180
      dx2y2   :     0.008280
      dxy     :     0.003471
 29 H s       :     0.944459  s :     0.944459
      pz      :     0.012001  p :     0.024596
      px      :     0.005486
      py      :     0.007109
 30 H s       :     0.932909  s :     0.932909
      pz      :     0.010057  p :     0.023067
      px      :     0.007055
      py      :     0.005955
 31 H s       :     0.955255  s :     0.955255
      pz      :     0.006480  p :     0.025817
      px      :     0.014612
      py      :     0.004724
 32 H s       :     0.939755  s :     0.939755
      pz      :     0.014110  p :     0.024525
      px      :     0.004710
      py      :     0.005705
 33 H s       :     0.949431  s :     0.949431
      pz      :     0.010180  p :     0.027145
      px      :     0.007079
      py      :     0.009886


                     *******************************
                     * LOEWDIN POPULATION ANALYSIS *
                     *******************************

----------------------
LOEWDIN ATOMIC CHARGES
----------------------
   0 S :    0.429932
   1 C :   -0.187733
   2 C :   -0.068466
   3 C :   -0.059739
   4 C :   -0.227505
   5 H :    0.027163
   6 C :   -0.037212
   7 H :    0.030586
   8 H :    0.037861
   9 C :   -0.041795
  10 H :    0.034835
  11 H :    0.023651
  12 C :   -0.074411
  13 H :    0.020589
  14 H :    0.026983
  15 H :    0.027826
  16 S :    0.449288
  17 C :   -0.183631
  18 C :   -0.072936
  19 C :   -0.056113
  20 C :   -0.217853
  21 H :    0.033280
  22 C :   -0.027490
  23 H :    0.035687
  24 H :    0.030528
  25 C :   -0.042012
  26 H :    0.021835
  27 H :    0.019060
  28 C :   -0.060638
  29 H :    0.026341
  30 H :    0.031559
  31 H :    0.017984
  32 H :    0.022790
  33 H :    0.009760

-------------------------------
LOEWDIN REDUCED ORBITAL CHARGES
-------------------------------
  0 S s       :     5.486054  s :     5.486054
      pz      :     2.980591  p :     9.940896
      px      :     3.382572
      py      :     3.577732
      dz2     :     0.022606  d :     0.143118
      dxz     :     0.059138
      dyz     :     0.033272
      dx2y2   :     0.014860
      dxy     :     0.013242
  1 C s       :     2.930807  s :     2.930807
      pz      :     1.026506  p :     3.175752
      px      :     1.063329
      py      :     1.085917
      dz2     :     0.017888  d :     0.081175
      dxz     :     0.030683
      dyz     :     0.006080
      dx2y2   :     0.012296
      dxy     :     0.014228
  2 C s       :     2.859850  s :     2.859850
      pz      :     1.051882  p :     3.099516
      px      :     1.068617
      py      :     0.979017
      dz2     :     0.033706  d :     0.109100
      dxz     :     0.030011
      dyz     :     0.013141
      dx2y2   :     0.017501
      dxy     :     0.014741
  3 C s       :     2.877640  s :     2.877640
      pz      :     1.030181  p :     3.091960
      px      :     1.047052
      py      :     1.014728
      dz2     :     0.025199  d :     0.090138
      dxz     :     0.029975
      dyz     :     0.013896
      dx2y2   :     0.012895
      dxy     :     0.008173
  4 C s       :     2.903158  s :     2.903158
      pz      :     1.048521  p :     3.215271
      px      :     1.066590
      py      :     1.100160
      dz2     :     0.024051  d :     0.109077
      dxz     :     0.045550
      dyz     :     0.012813
      dx2y2   :     0.012090
      dxy     :     0.014573
  5 H s       :     0.904336  s :     0.904336
      pz      :     0.015753  p :     0.068501
      px      :     0.036785
      py      :     0.015962
  6 C s       :     2.813580  s :     2.813580
      pz      :     1.033310  p :     3.127464
      px      :     1.049426
      py      :     1.044728
      dz2     :     0.013028  d :     0.096168
      dxz     :     0.026366
      dyz     :     0.021400
      dx2y2   :     0.012522
      dxy     :     0.022854
  7 H s       :     0.898025  s :     0.898025
      pz      :     0.017753  p :     0.071389
      px      :     0.028733
      py      :     0.024904
  8 H s       :     0.898458  s :     0.898458
      pz      :     0.027472  p :     0.063681
      px      :     0.016550
      py      :     0.019659
  9 C s       :     2.848870  s :     2.848870
      pz      :     1.035412  p :     3.108499
      px      :     1.054661
      py      :     1.018426
      dz2     :     0.007246  d :     0.084426
      dxz     :     0.024331
      dyz     :     0.021718
      dx2y2   :     0.014749
      dxy     :     0.016383
 10 H s       :     0.909041  s :     0.909041
      pz      :     0.017915  p :     0.056124
      px      :     0.020157
      py      :     0.018052
 11 H s       :     0.904154  s :     0.904154
      pz      :     0.025156  p :     0.072195
      px      :     0.032924
      py      :     0.014115
 12 C s       :     2.851347  s :     2.851347
      pz      :     1.050202  p :     3.155671
      px      :     1.059062
      py      :     1.046407
      dz2     :     0.005234  d :     0.067394
      dxz     :     0.021404
      dyz     :     0.018212
      dx2y2   :     0.007278
      dxy     :     0.015266
 13 H s       :     0.906459  s :     0.906459
      pz      :     0.025243  p :     0.072952
      px      :     0.027943
      py      :     0.019765
 14 H s       :     0.910294  s :     0.910294
      pz      :     0.017106  p :     0.062723
      px      :     0.016616
      py      :     0.029001
 15 H s       :     0.911140  s :     0.911140
      pz      :     0.018093  p :     0.061034
      px      :     0.027168
      py      :     0.015773
 16 S s       :     5.475592  s :     5.475592
      pz      :     3.077179  p :     9.924620
      px      :     3.581991
      py      :     3.265450
      dz2     :     0.049263  d :     0.150500
      dxz     :     0.028189
      dyz     :     0.029333
      dx2y2   :     0.025355
      dxy     :     0.018360
 17 C s       :     2.912163  s :     2.912163
      pz      :     1.019013  p :     3.188881
      px      :     1.087422
      py      :     1.082447
      dz2     :     0.023201  d :     0.082586
      dxz     :     0.009174
      dyz     :     0.025914
      dx2y2   :     0.012480
      dxy     :     0.011819
 18 C s       :     2.875348  s :     2.875348
      pz      :     1.043093  p :     3.108197
      px      :     1.018590
      py      :     1.046514
      dz2     :     0.020566  d :     0.089391
      dxz     :     0.008042
      dyz     :     0.031249
      dx2y2   :     0.014528
      dxy     :     0.015005
 19 C s       :     2.862515  s :     2.862515
      pz      :     1.061268  p :     3.085749
      px      :     0.984690
      py      :     1.039791
      dz2     :     0.024063  d :     0.107849
      dxz     :     0.016065
      dyz     :     0.040184
      dx2y2   :     0.013880
      dxy     :     0.013657
 20 C s       :     2.894576  s :     2.894576
      pz      :     1.061615  p :     3.210242
      px      :     1.112470
      py      :     1.036156
      dz2     :     0.036476  d :     0.113035
      dxz     :     0.012881
      dyz     :     0.034009
      dx2y2   :     0.014916
      dxy     :     0.014752
 21 H s       :     0.900904  s :     0.900904
      pz      :     0.032290  p :     0.065817
      px      :     0.015977
      py      :     0.017550
 22 C s       :     2.830011  s :     2.830011
      pz      :     1.051227  p :     3.112985
      px      :     1.067022
      py      :     0.994736
      dz2     :     0.022977  d :     0.084495
      dxz     :     0.012785
      dyz     :     0.012566
      dx2y2   :     0.021536
      dxy     :     0.014630
 23 H s       :     0.896982  s :     0.896982
      pz      :     0.014072  p :     0.067331
      px      :     0.036866
      py      :     0.016394
 24 H s       :     0.899975  s :     0.899975
      pz      :     0.036663  p :     0.069498
      px      :     0.018239
      py      :     0.014596
 25 C s       :     2.823149  s :     2.823149
      pz      :     1.042143  p :     3.129406
      px      :     1.061591
      py      :     1.025672
      dz2     :     0.018196  d :     0.089457
      dxz     :     0.010147
      dyz     :     0.024476
      dx2y2   :     0.025113
      dxy     :     0.011525
 26 H s       :     0.904804  s :     0.904804
      pz      :     0.016412  p :     0.073361
      px      :     0.041448
      py      :     0.015501
 27 H s       :     0.911711  s :     0.911711
      pz      :     0.032090  p :     0.069230
      px      :     0.015075
      py      :     0.022065
 28 C s       :     2.822733  s :     2.822733
      pz      :     1.054038  p :     3.164587
      px      :     1.076169
      py      :     1.034380
      dz2     :     0.015373  d :     0.073318
      dxz     :     0.008214
      dyz     :     0.020020
      dx2y2   :     0.020845
      dxy     :     0.008866
 29 H s       :     0.904700  s :     0.904700
      pz      :     0.033989  p :     0.068959
      px      :     0.014110
      py      :     0.020860
 30 H s       :     0.903750  s :     0.903750
      pz      :     0.028031  p :     0.064692
      px      :     0.018024
      py      :     0.018637
 31 H s       :     0.908246  s :     0.908246
      pz      :     0.016549  p :     0.073771
      px      :     0.041252
      py      :     0.015969
 32 H s       :     0.899584  s :     0.899584
      pz      :     0.043586  p :     0.077626
      px      :     0.015358
      py      :     0.018682
 33 H s       :     0.902025  s :     0.902025
      pz      :     0.034417  p :     0.088215
      px      :     0.024176
      py      :     0.029623


                      *****************************
                      * MAYER POPULATION ANALYSIS *
                      *****************************

  NA   - Mulliken gross atomic population
  ZA   - Total nuclear charge
  QA   - Mulliken gross atomic charge
  VA   - Mayer's total valence
  BVA  - Mayer's bonded valence
  FA   - Mayer's free valence

  ATOM       NA         ZA         QA         VA         BVA        FA
  0 S     15.8701    16.0000     0.1299     2.5105     2.5105    -0.0000
  1 C      6.1080     6.0000    -0.1080     3.8396     3.8396     0.0000
  2 C      6.1303     6.0000    -0.1303     4.0220     4.0220    -0.0000
  3 C      5.9473     6.0000     0.0527     3.9230     3.9230    -0.0000
  4 C      6.1786     6.0000    -0.1786     3.8487     3.8487    -0.0000
  5 H      0.9907     1.0000     0.0093     1.0022     1.0022    -0.0000
  6 C      5.8937     6.0000     0.1063     3.9519     3.9519     0.0000
  7 H      0.9776     1.0000     0.0224     0.9891     0.9891     0.0000
  8 H      0.9750     1.0000     0.0250     0.9874     0.9874     0.0000
  9 C      6.0684     6.0000    -0.0684     4.0721     4.0721    -0.0000
 10 H      0.9576     1.0000     0.0424     0.9792     0.9792    -0.0000
 11 H      0.9711     1.0000     0.0289     0.9760     0.9760    -0.0000
 12 C      6.1041     6.0000    -0.1041     3.9898     3.9898    -0.0000
 13 H      0.9467     1.0000     0.0533     0.9934     0.9934    -0.0000
 14 H      0.9737     1.0000     0.0263     0.9833     0.9833    -0.0000
 15 H      0.9627     1.0000     0.0373     0.9868     0.9868    -0.0000
 16 S     15.8790    16.0000     0.1210     2.5365     2.5365     0.0000
 17 C      6.0478     6.0000    -0.0478     3.8277     3.8277    -0.0000
 18 C      6.0665     6.0000    -0.0665     3.9345     3.9345     0.0000
 19 C      6.0205     6.0000    -0.0205     4.0435     4.0435    -0.0000
 20 C      6.1941     6.0000    -0.1941     3.9272     3.9272     0.0000
 21 H      0.9681     1.0000     0.0319     0.9949     0.9949     0.0000
 22 C      5.9104     6.0000     0.0896     3.9385     3.9385     0.0000
 23 H      0.9660     1.0000     0.0340     0.9948     0.9948     0.0000
 24 H      0.9766     1.0000     0.0234     0.9914     0.9914     0.0000
 25 C      6.0690     6.0000    -0.0690     4.0537     4.0537    -0.0000
 26 H      0.9745     1.0000     0.0255     0.9814     0.9814    -0.0000
 27 H      0.9853     1.0000     0.0147     0.9881     0.9881    -0.0000
 28 C      6.0398     6.0000    -0.0398     4.0073     4.0073    -0.0000
 29 H      0.9691     1.0000     0.0309     0.9864     0.9864     0.0000
 30 H      0.9560     1.0000     0.0440     0.9868     0.9868    -0.0000
 31 H      0.9811     1.0000     0.0189     0.9919     0.9919    -0.0000
 32 H      0.9643     1.0000     0.0357     1.0084     1.0084    -0.0000
 33 H      0.9766     1.0000     0.0234     1.0066     1.0066    -0.0000

  Mayer bond orders larger than 0.100000
B(  0-S ,  1-C ) :   1.1654 B(  0-S ,  4-C ) :   1.1592 B(  1-C ,  2-C ) :   1.5814 
B(  1-C , 32-H ) :   0.9677 B(  2-C ,  3-C ) :   1.2678 B(  2-C ,  6-C ) :   1.0391 
B(  3-C ,  4-C ) :   1.5582 B(  3-C ,  5-H ) :   0.9903 B(  4-C , 20-C ) :   0.9937 
B(  6-C ,  7-H ) :   0.9311 B(  6-C ,  8-H ) :   0.9321 B(  6-C ,  9-C ) :   1.0689 
B(  9-C , 10-H ) :   0.9555 B(  9-C , 11-H ) :   0.9578 B(  9-C , 12-C ) :   1.0709 
B( 12-C , 13-H ) :   0.9747 B( 12-C , 14-H ) :   0.9739 B( 12-C , 15-H ) :   0.9760 
B( 16-S , 17-C ) :   1.1713 B( 16-S , 20-C ) :   1.1940 B( 17-C , 18-C ) :   1.5542 
B( 17-C , 20-C ) :   0.1118 B( 17-C , 33-H ) :   0.9892 B( 18-C , 19-C ) :   1.2778 
B( 18-C , 21-H ) :   0.9773 B( 19-C , 20-C ) :   1.5801 B( 19-C , 22-C ) :   1.0358 
B( 22-C , 23-H ) :   0.9404 B( 22-C , 24-H ) :   0.9292 B( 22-C , 25-C ) :   1.0399 
B( 25-C , 26-H ) :   0.9555 B( 25-C , 27-H ) :   0.9634 B( 25-C , 28-C ) :   1.0727 
B( 28-C , 29-H ) :   0.9783 B( 28-C , 30-H ) :   0.9740 B( 28-C , 31-H ) :   0.9753 


-------
TIMINGS
-------

Total SCF time: 0 days 0 hours 0 min 19 sec 

Total time                  ....      19.492 sec
Sum of individual times     ....      18.631 sec  ( 95.6%)

Fock matrix formation       ....      16.954 sec  ( 87.0%)
  XC integration            ....       1.468 sec  (  8.7% of F)
    Basis function eval.    ....       0.145 sec  (  9.9% of XC)
    Density eval.           ....       0.107 sec  (  7.3% of XC)
    XC-Functional eval.     ....       0.119 sec  (  8.1% of XC)
    XC-Potential eval.      ....       0.128 sec  (  8.7% of XC)
Diagonalization             ....       0.144 sec  (  0.7%)
Density matrix formation    ....       0.030 sec  (  0.2%)
Population analysis         ....       0.056 sec  (  0.3%)
Initial guess               ....       0.167 sec  (  0.9%)
Orbital Transformation      ....       0.000 sec  (  0.0%)
Orbital Orthonormalization  ....       0.000 sec  (  0.0%)
DIIS solution               ....       0.149 sec  (  0.8%)
SOSCF solution              ....       0.130 sec  (  0.7%)
Grid generation             ....       1.001 sec  (  5.1%)


-------------------------------------------------------------------------------
                          DFT DISPERSION CORRECTION                            
                                                                               
                              DFTD3 V3.1  Rev 1                                
                              USING zero damping                               
-------------------------------------------------------------------------------
The omegaB97X-D3 functional is recognized. Fit by Chai et al.
Active option DFTDOPT                   ...         3   

molecular C6(AA) [au] = 14119.969143 


            DFT-D V3
 parameters
 s6 scaling factor         :     1.0000 
 rs6 scaling factor        :     1.2810 
 s8 scaling factor         :     1.0000 
 rs8 scaling factor        :     1.0940 
 Damping factor alpha6     :    14.0000 
 Damping factor alpha8     :    16.0000 
 ad hoc parameters k1-k3   :    16.0000     1.3333    -4.0000 

 Edisp/kcal,au: -8.797545537239  -0.014019779720 
 E6   /kcal   :  -3.991004366 
 E8   /kcal   :  -4.806541171 
 % E8         :  54.635024631 

-------------------------   ----------------
Dispersion correction           -0.014019780
-------------------------   ----------------


-------------------------   --------------------
FINAL SINGLE POINT ENERGY     -1339.865567531336
-------------------------   --------------------


                            ***************************************
                            *     ORCA property calculations      *
                            ***************************************

                                    ---------------------
                                    Active property flags
                                    ---------------------
   (+) Dipole Moment


------------------------------------------------------------------------------
                       ORCA ELECTRIC PROPERTIES CALCULATION
------------------------------------------------------------------------------

Dipole Moment Calculation                       ... on
Quadrupole Moment Calculation                   ... off
Polarizability Calculation                      ... off
GBWName                                         ... config_9286.gbw
Electron density file                           ... config_9286.scfp
The origin for moment calculation is the CENTER OF MASS  = (63.035720, -59.815241 -206.558949)

-------------
DIPOLE MOMENT
-------------
                                X             Y             Z
Electronic contribution:    -13.97096      13.18251      -1.82538
Nuclear contribution   :     14.24907     -13.50567       1.90213
                        -----------------------------------------
Total Dipole Moment    :      0.27810      -0.32317       0.07674
                        -----------------------------------------
Magnitude (a.u.)       :      0.43321
Magnitude (Debye)      :      1.10112



--------------------
Rotational spectrum 
--------------------
 
Rotational constants in cm-1:     0.019882     0.007676     0.006698 
Rotational constants in MHz :   596.049094   230.111280   200.811612 

 Dipole components along the rotational axes: 
x,y,z [a.u.] :     0.047541    -0.389555    -0.183449 
x,y,z [Debye]:     0.120840    -0.990171    -0.466289 

 

Timings for individual modules:

Sum of individual times         ...       20.661 sec (=   0.344 min)
GTO integral calculation        ...        0.778 sec (=   0.013 min)   3.8 %
SCF iterations                  ...       19.883 sec (=   0.331 min)  96.2 %
                             ****ORCA TERMINATED NORMALLY****
TOTAL RUN TIME: 0 days 0 hours 0 minutes 21 seconds 367 msec
