
                                 *****************
                                 * O   R   C   A *
                                 *****************

           --- An Ab Initio, DFT and Semiempirical electronic structure package ---

                  #######################################################
                  #                        -***-                        #
                  #          Department of theory and spectroscopy      #
                  #               Directorship: Frank Neese             #
                  #        Max Planck Institute fuer Kohlenforschung    #
                  #                Kaiser Wilhelm Platz 1               #
                  #                 D-45470 Muelheim/Ruhr               #
                  #                      Germany                        #
                  #                                                     #
                  #                  All rights reserved                #
                  #                        -***-                        #
                  #######################################################


                         Program Version 4.2.1 -  RELEASE  -


 With contributions from (in alphabetic order):
   Daniel Aravena         : Magnetic Suceptibility
   Michael Atanasov       : Ab Initio Ligand Field Theory (pilot matlab implementation)
   Alexander A. Auer      : GIAO ZORA, VPT2
   Ute Becker             : Parallelization
   Giovanni Bistoni       : ED, misc. LED, open-shell LED, HFLD
   Martin Brehm           : Molecular dynamics
   Dmytro Bykov           : SCF Hessian
   Vijay G. Chilkuri      : MRCI spin determinant printing, contributions to CSF-ICE
   Dipayan Datta          : RHF DLPNO-CCSD density
   Achintya Kumar Dutta   : EOM-CC, STEOM-CC
   Dmitry Ganyushin       : Spin-Orbit,Spin-Spin,Magnetic field MRCI
   Miquel Garcia          : C-PCM Hessian, Gaussian charge scheme
   Yang Guo               : DLPNO-NEVPT2, CIM, IAO-localization
   Andreas Hansen         : Spin unrestricted coupled pair/coupled cluster methods
   Benjamin Helmich-Paris : CASSCF linear response (MC-RPA)
   Lee Huntington         : MR-EOM, pCC
   Robert Izsak           : Overlap fitted RIJCOSX, COSX-SCS-MP3, EOM
   Christian Kollmar      : KDIIS, OOCD, Brueckner-CCSD(T), CCSD density
   Simone Kossmann        : Meta GGA functionals, TD-DFT gradient, OOMP2, MP2 Hessian
   Martin Krupicka        : AUTO-CI
   Lucas Lang             : DCDCAS
   Dagmar Lenk            : GEPOL surface, SMD
   Dimitrios Liakos       : Extrapolation schemes; Compound Job, initial MDCI parallelization
   Dimitrios Manganas     : Further ROCIS development; embedding schemes
   Dimitrios Pantazis     : SARC Basis sets
   Taras Petrenko         : DFT Hessian,TD-DFT gradient, ASA, ECA, R-Raman, ABS, FL, XAS/XES, NRVS
   Peter Pinski           : DLPNO-MP2, DLPNO-MP2 Gradient
   Christoph Reimann      : Effective Core Potentials
   Marius Retegan         : Local ZFS, SOC
   Christoph Riplinger    : Optimizer, TS searches, QM/MM, DLPNO-CCSD(T), (RO)-DLPNO pert. Triples
   Tobias Risthaus        : Range-separated hybrids, TD-DFT gradient, RPA, STAB
   Michael Roemelt        : Original ROCIS implementation
   Masaaki Saitow         : Open-shell DLPNO-CCSD energy and density
   Barbara Sandhoefer     : DKH picture change effects
   Avijit Sen             : IP-ROCIS
   Kantharuban Sivalingam : CASSCF convergence, NEVPT2, FIC-MRCI
   Bernardo de Souza      : ESD, SOC TD-DFT
   Georgi Stoychev        : AutoAux, RI-MP2 NMR
   Willem Van den Heuvel  : Paramagnetic NMR
   Boris Wezisla          : Elementary symmetry handling
   Frank Wennmohs         : Technical directorship


 We gratefully acknowledge several colleagues who have allowed us to
 interface, adapt or use parts of their codes:
   Stefan Grimme, W. Hujo, H. Kruse,             : VdW corrections, initial TS optimization,
                  C. Bannwarth                     DFT functionals, gCP, sTDA/sTD-DF
   Ed Valeev, F. Pavosevic, A. Kumar             : LibInt (2-el integral package), F12 methods
   Garnet Chan, S. Sharma, J. Yang, R. Olivares  : DMRG
   Ulf Ekstrom                                   : XCFun DFT Library
   Mihaly Kallay                                 : mrcc  (arbitrary order and MRCC methods)
   Andreas Klamt, Michael Diedenhofen            : otool_cosmo (COSMO solvation model)
   Jiri Pittner, Ondrej Demel                    : Mk-CCSD
   Frank Weinhold                                : gennbo (NPA and NBO analysis)
   Christopher J. Cramer and Donald G. Truhlar   : smd solvation model
   Lars Goerigk                                  : TD-DFT with DH, B97 family of functionals
   V. Asgeirsson, H. Jonsson                     : NEB implementation
   FAccTs GmbH                                   : IRC, NEB, NEB-TS, Multilevel, MM, QM/MM, CI optimization
   S Lehtola, MJT Oliveira, MAL Marques          : LibXC Library


 Your calculation uses the libint2 library for the computation of 2-el integrals
 For citations please refer to: http://libint.valeyev.net

 Your ORCA version has been built with support for libXC version: 4.2.3
 For citations please refer to: https://tddft.org/programs/libxc/

 This ORCA versions uses:
   CBLAS   interface :  Fast vector & matrix operations
   LAPACKE interface :  Fast linear algebra routines
   SCALAPACK package :  Parallel linear algebra routines


Your calculation utilizes the atom-pairwise dispersion correction
with the zero-damping scheme (D30)
Cite in your paper:
S.Grimme, J.Antony, S.Ehrlich and H.Krieg, J.Chem.Phys., 132, (2010), 154104 
   

XCFun DFT library Copyright 2009-2010 Ulf Ekstrom and contributors.
See http://admol.org/xcfun for more information. This is free soft-
ware; see the source code for copying conditions. There is ABSOLUTELY
NO WARRANTY; not even for MERCHANTABILITY or FITNESS FOR A PARTICULAR
PURPOSE. For details see the documentation. Scientific users of this 
library should cite U. Ekstrom, L. Visscher, R. Bast, A. J. Thorvald-
sen and K. Ruud; J.Chem.Theor.Comp. 2010, DOI: 10.1021/ct100117s
XCFun Version 0.99 
----- Orbital basis set information -----
Your calculation utilizes the basis: def2-SVP
   F. Weigend and R. Ahlrichs, Phys. Chem. Chem. Phys. 7, 3297 (2005).

================================================================================
                                        WARNINGS
                       Please study these warnings very carefully!
================================================================================


INFO   : the flag for use of LIBINT has been found!

================================================================================
                                       INPUT FILE
================================================================================
NAME = config_7376.inp
|  1> ! wB97X-D3 SP def2-SVP
|  2> %pal
|  3> nprocs 24
|  4> end
|  5> 
|  6> * xyz 0 1
|  7> S 	 -79.4916 	 -4.6958 	 -59.9649 	 
|  8> C 	 -78.3732 	 -4.85492 	 -58.6438 	 
|  9> C 	 -78.689 	 -5.96041 	 -57.9046 	 
| 10> C 	 -79.7793 	 -6.74821 	 -58.4425 	 
| 11> C 	 -80.2828 	 -6.24737 	 -59.6393 	 
| 12> H 	 -80.3153 	 -7.56678 	 -57.9929 	 
| 13> C 	 -77.9857 	 -6.431 	 -56.6237 	 
| 14> H 	 -77.1135 	 -6.97008 	 -57.0738 	 
| 15> H 	 -78.5927 	 -7.19211 	 -56.0756 	 
| 16> C 	 -77.6712 	 -5.28781 	 -55.6154 	 
| 17> H 	 -77.0683 	 -4.47756 	 -56.0603 	 
| 18> H 	 -78.6289 	 -4.9413 	 -55.2157 	 
| 19> C 	 -76.8472 	 -5.81339 	 -54.4201 	 
| 20> H 	 -76.0124 	 -6.52625 	 -54.6146 	 
| 21> H 	 -76.4653 	 -4.971 	 -53.8459 	 
| 22> H 	 -77.4774 	 -6.24044 	 -53.5975 	 
| 23> S 	 -82.8283 	 -5.4174 	 -60.3101 	 
| 24> C 	 -83.9324 	 -6.63957 	 -61.067 	 
| 25> C 	 -83.2895 	 -7.83548 	 -61.2122 	 
| 26> C 	 -81.9189 	 -7.87128 	 -60.7099 	 
| 27> C 	 -81.5322 	 -6.59623 	 -60.285 	 
| 28> H 	 -83.8238 	 -8.68365 	 -61.5699 	 
| 29> C 	 -81.0178 	 -9.09559 	 -60.9178 	 
| 30> H 	 -81.5807 	 -10.0336 	 -60.6456 	 
| 31> H 	 -80.1613 	 -8.96173 	 -60.2901 	 
| 32> C 	 -80.639 	 -9.29595 	 -62.4064 	 
| 33> H 	 -80.1058 	 -8.4212 	 -62.8356 	 
| 34> H 	 -81.5842 	 -9.33054 	 -63.0057 	 
| 35> C 	 -79.6551 	 -10.3711 	 -62.5881 	 
| 36> H 	 -79.5348 	 -10.6458 	 -63.6569 	 
| 37> H 	 -79.8731 	 -11.3778 	 -62.1576 	 
| 38> H 	 -78.7345 	 -9.91008 	 -62.281 	 
| 39> H 	 -77.7026 	 -4.0701 	 -58.2935 	 
| 40> H 	 -84.9457 	 -6.38358 	 -61.1544 	 
| 41> *
| 42> 
| 43>                          ****END OF INPUT****
================================================================================

                       ****************************
                       * Single Point Calculation *
                       ****************************

---------------------------------
CARTESIAN COORDINATES (ANGSTROEM)
---------------------------------
  S    -79.491600   -4.695800  -59.964900
  C    -78.373200   -4.854920  -58.643800
  C    -78.689000   -5.960410  -57.904600
  C    -79.779300   -6.748210  -58.442500
  C    -80.282800   -6.247370  -59.639300
  H    -80.315300   -7.566780  -57.992900
  C    -77.985700   -6.431000  -56.623700
  H    -77.113500   -6.970080  -57.073800
  H    -78.592700   -7.192110  -56.075600
  C    -77.671200   -5.287810  -55.615400
  H    -77.068300   -4.477560  -56.060300
  H    -78.628900   -4.941300  -55.215700
  C    -76.847200   -5.813390  -54.420100
  H    -76.012400   -6.526250  -54.614600
  H    -76.465300   -4.971000  -53.845900
  H    -77.477400   -6.240440  -53.597500
  S    -82.828300   -5.417400  -60.310100
  C    -83.932400   -6.639570  -61.067000
  C    -83.289500   -7.835480  -61.212200
  C    -81.918900   -7.871280  -60.709900
  C    -81.532200   -6.596230  -60.285000
  H    -83.823800   -8.683650  -61.569900
  C    -81.017800   -9.095590  -60.917800
  H    -81.580700  -10.033600  -60.645600
  H    -80.161300   -8.961730  -60.290100
  C    -80.639000   -9.295950  -62.406400
  H    -80.105800   -8.421200  -62.835600
  H    -81.584200   -9.330540  -63.005700
  C    -79.655100  -10.371100  -62.588100
  H    -79.534800  -10.645800  -63.656900
  H    -79.873100  -11.377800  -62.157600
  H    -78.734500   -9.910080  -62.281000
  H    -77.702600   -4.070100  -58.293500
  H    -84.945700   -6.383580  -61.154400

----------------------------
CARTESIAN COORDINATES (A.U.)
----------------------------
  NO LB      ZA    FRAG     MASS         X           Y           Z
   0 S    16.0000    0    32.060  -150.217354   -8.873776  -113.317239
   1 C     6.0000    0    12.011  -148.103884   -9.174469  -110.820721
   2 C     6.0000    0    12.011  -148.700660  -11.263543  -109.423836
   3 C     6.0000    0    12.011  -150.761028  -12.752269  -110.440320
   4 C     6.0000    0    12.011  -151.712505  -11.805818  -112.701944
   5 H     1.0000    0     1.008  -151.773921  -14.299142  -109.590699
   6 C     6.0000    0    12.011  -147.371615  -12.152829  -107.003286
   7 H     1.0000    0     1.008  -145.723396  -13.171542  -107.853851
   8 H     1.0000    0     1.008  -148.518679  -13.591118  -105.967527
   9 C     6.0000    0    12.011  -146.777296   -9.992513  -105.097875
  10 H     1.0000    0     1.008  -145.637981   -8.461362  -105.938614
  11 H     1.0000    0     1.008  -148.587087   -9.337704  -104.342551
  12 C     6.0000    0    12.011  -145.220162  -10.985715  -102.839085
  13 H     1.0000    0     1.008  -143.642619  -12.332825  -103.206637
  14 H     1.0000    0     1.008  -144.498476   -9.393829  -101.754004
  15 H     1.0000    0     1.008  -146.411068  -11.792723  -101.284596
  16 S    16.0000    0    32.060  -156.522803  -10.237402  -113.969572
  17 C     6.0000    0    12.011  -158.609250  -12.546969  -115.399906
  18 C     6.0000    0    12.011  -157.394345  -14.806911  -115.674294
  19 C     6.0000    0    12.011  -154.804286  -14.874564  -114.725085
  20 C     6.0000    0    12.011  -154.073529  -12.465068  -113.922140
  21 H     1.0000    0     1.008  -158.404026  -16.409720  -116.350249
  22 C     6.0000    0    12.011  -153.101454  -17.188174  -115.117959
  23 H     1.0000    0     1.008  -154.165181  -18.960756  -114.603575
  24 H     1.0000    0     1.008  -151.482904  -16.935215  -113.931778
  25 C     6.0000    0    12.011  -152.385626  -17.566800  -117.931005
  26 H     1.0000    0     1.008  -151.378024  -15.913762  -118.742075
  27 H     1.0000    0     1.008  -154.171795  -17.632165  -119.063518
  28 C     6.0000    0    12.011  -150.526324  -19.598539  -118.274368
  29 H     1.0000    0     1.008  -150.298990  -20.117646  -120.294108
  30 H     1.0000    0     1.008  -150.938284  -21.500926  -117.460841
  31 H     1.0000    0     1.008  -148.786642  -18.727337  -117.694033
  32 H     1.0000    0     1.008  -146.836634   -7.691374  -110.158750
  33 H     1.0000    0     1.008  -160.524109  -12.063218  -115.565068

--------------------------------
INTERNAL COORDINATES (ANGSTROEM)
--------------------------------
 S      0   0   0     0.000000000000     0.00000000     0.00000000
 C      1   0   0     1.738229830719     0.00000000     0.00000000
 C      2   1   0     1.366841036880   109.65832463     0.00000000
 C      3   2   1     1.448695737552   114.38738050     4.03917051
 C      4   3   2     1.391647654976   113.32209526     1.57714674
 H      4   3   2     1.076797569137   129.27089269   190.04188091
 C      3   2   1     1.535184239139   126.39218048   182.45105321
 H      7   3   2     1.119790201957    99.73122356   277.84262670
 H      7   3   2     1.117206803640   111.67014390   165.05028898
 C      7   3   2     1.556426200017   114.07584381    43.57756852
 H     10   7   3     1.103598424473   112.86027320   303.93258080
 H     10   7   3     1.094083433793   107.00279753    69.02240908
 C     10   7   3     1.544005319421   111.05942181   185.45216661
 H     13  10   7     1.114850065973   118.83020632    42.30322048
 H     13  10   7     1.088657045217   109.39842601   168.18153811
 H     13  10   7     1.120800830879   113.44129837   274.08255010
 S      5   4   3     2.760143672148   130.60854887   238.61025280
 C     17   5   4     1.812631768700   117.41824078   266.84370908
 C     18  17   5     1.365505099990   110.37309339   359.01930620
 C     19  18  17     1.460181937294   115.26617172     1.56448294
 C     20  19  18     1.398509707689   109.98087634   354.84053503
 H     19  18  17     1.064339292190   119.82222318   175.06913193
 C     20  19  18     1.534320239096   121.61557687   185.91888837
 H     23  20  19     1.127302980613   109.75422022   312.59214657
 H     23  20  19     1.070288764586   106.90094840   191.85051979
 C     23  20  19     1.549052461862   112.15025476    67.99595764
 H     26  23  20     1.110721586402   112.75926735    58.99126570
 H     26  23  20     1.119714248413   108.17437337   305.91510463
 C     26  23  20     1.468680231534   112.17240774   173.41755605
 H     29  26  23     1.110074601097   111.89277367   168.84419365
 H     29  26  23     1.116377686986   118.79031997    53.43876618
 H     29  26  23     1.074408772488   102.97571157   283.15578346
 H      2   1   3     1.090117829595   125.03854506   195.28511259
 H     18  17   5     1.048783357086   117.30525288   168.69007772

---------------------------
INTERNAL COORDINATES (A.U.)
---------------------------
 S      0   0   0     0.000000000000     0.00000000     0.00000000
 C      1   0   0     3.284778337870     0.00000000     0.00000000
 C      2   1   0     2.582955228309   109.65832463     0.00000000
 C      3   2   1     2.737638195351   114.38738050     4.03917051
 C      4   3   2     2.629832942818   113.32209526     1.57714674
 H      4   3   2     2.034852507342   129.27089269   190.04188091
 C      3   2   1     2.901077777084   126.39218048   182.45105321
 H      7   3   2     2.116096809148    99.73122356   277.84262670
 H      7   3   2     2.111214893834   111.67014390   165.05028898
 C      7   3   2     2.941219265692   114.07584381    43.57756852
 H     10   7   3     2.085498784082   112.86027320   303.93258080
 H     10   7   3     2.067518057529   107.00279753    69.02240908
 C     10   7   3     2.917747203023   111.05942181   185.45216661
 H     13  10   7     2.106761305073   118.83020632    42.30322048
 H     13  10   7     2.057263669224   109.39842601   168.18153811
 H     13  10   7     2.118006621033   113.44129837   274.08255010
 S      5   4   3     5.215915630636   130.60854887   238.61025280
 C     17   5   4     3.425377624488   117.41824078   266.84370908
 C     18  17   5     2.580430673455   110.37309339   359.01930620
 C     19  18  17     2.759343967184   115.26617172     1.56448294
 C     20  19  18     2.642800343162   109.98087634   354.84053503
 H     19  18  17     2.011309775811   119.82222318   175.06913193
 C     20  19  18     2.899445053624   121.61557687   185.91888837
 H     23  20  19     2.130293903313   109.75422022   312.59214657
 H     23  20  19     2.022552649281   106.90094840   191.85051979
 C     23  20  19     2.927284919995   112.15025476    67.99595764
 H     26  23  20     2.098959609335   112.75926735    58.99126570
 H     26  23  20     2.115953277751   108.17437337   305.91510463
 C     26  23  20     2.775403415904   112.17240774   173.41755605
 H     29  26  23     2.097736984295   111.89277367   168.84419365
 H     29  26  23     2.109648090424   118.79031997    53.43876618
 H     29  26  23     2.030338335886   102.97571157   283.15578346
 H      2   1   3     2.060024151638   125.03854506   195.28511259
 H     18  17   5     1.981913318707   117.30525288   168.69007772

---------------------
BASIS SET INFORMATION
---------------------
There are 3 groups of distinct atoms

 Group   1 Type S   : 10s7p1d contracted to 4s3p1d pattern {5311/511/1}
 Group   2 Type C   : 7s4p1d contracted to 3s2p1d pattern {511/31/1}
 Group   3 Type H   : 4s1p contracted to 2s1p pattern {31/1}

Atom   0S    basis set group =>   1
Atom   1C    basis set group =>   2
Atom   2C    basis set group =>   2
Atom   3C    basis set group =>   2
Atom   4C    basis set group =>   2
Atom   5H    basis set group =>   3
Atom   6C    basis set group =>   2
Atom   7H    basis set group =>   3
Atom   8H    basis set group =>   3
Atom   9C    basis set group =>   2
Atom  10H    basis set group =>   3
Atom  11H    basis set group =>   3
Atom  12C    basis set group =>   2
Atom  13H    basis set group =>   3
Atom  14H    basis set group =>   3
Atom  15H    basis set group =>   3
Atom  16S    basis set group =>   1
Atom  17C    basis set group =>   2
Atom  18C    basis set group =>   2
Atom  19C    basis set group =>   2
Atom  20C    basis set group =>   2
Atom  21H    basis set group =>   3
Atom  22C    basis set group =>   2
Atom  23H    basis set group =>   3
Atom  24H    basis set group =>   3
Atom  25C    basis set group =>   2
Atom  26H    basis set group =>   3
Atom  27H    basis set group =>   3
Atom  28C    basis set group =>   2
Atom  29H    basis set group =>   3
Atom  30H    basis set group =>   3
Atom  31H    basis set group =>   3
Atom  32H    basis set group =>   3
Atom  33H    basis set group =>   3


           ************************************************************
           *        Program running with 24 parallel MPI-processes    *
           *              working on a common directory               *
           ************************************************************
------------------------------------------------------------------------------
                           ORCA GTO INTEGRAL CALCULATION
------------------------------------------------------------------------------

                         BASIS SET STATISTICS AND STARTUP INFO

 # of primitive gaussian shells          ...  294
 # of primitive gaussian functions       ...  534
 # of contracted shells                  ...  154
 # of contracted basis functions         ...  322
 Highest angular momentum                ...    2
 Maximum contraction depth               ...    5
 Integral package used                   ... LIBINT
 Integral threshhold            Thresh   ...  1.000e-10
 Primitive cut-off              TCut     ...  1.000e-11


------------------------------ INTEGRAL EVALUATION ----------------------------


 * One electron integrals 
 Pre-screening matrix                    ... done
 Shell pair data                         ... done (   0.003 sec)



           ************************************************************
           *        Program running with 24 parallel MPI-processes    *
           *              working on a common directory               *
           ************************************************************
-------------------------------------------------------------------------------
                                 ORCA SCF
-------------------------------------------------------------------------------

------------
SCF SETTINGS
------------
Hamiltonian:
 Density Functional     Method          .... DFT(GTOs)
 Exchange Functional    Exchange        .... WB97X-D3
 Correlation Functional Correlation     .... WB97X-D3
 Gradients option       PostSCFGGA      .... off
 Hybrid DFT is turned on
   Fraction HF Exchange ScalHFX         ....  0.195728
   Scaling of DF-GGA-X  ScalDFX         ....  0.000000
   Scaling of DF-GGA-C  ScalDFC         ....  1.000000
   Scaling of DF-LDA-C  ScalLDAC        ....  1.000000
   Perturbative correction              ....  0.000000
   Density functional embedding theory  .... OFF
 Long-range corrected/Screened/Range-Separated Hybrid DFT is turned on
   Amount of maximum screened exact exchange              ....  0.804272
   Range separation parameter mu (erf(mu*r12)/r12)        ....  0.250000


General Settings:
 Integral files         IntName         .... config_7376
 Hartree-Fock type      HFTyp           .... RHF
 Total Charge           Charge          ....    0
 Multiplicity           Mult            ....    1
 Number of Electrons    NEL             ....  134
 Basis Dimension        Dim             ....  322
 Nuclear Repulsion      ENuc            ....   1260.8118103171 Eh

Convergence Acceleration:
 DIIS                   CNVDIIS         .... on
   Start iteration      DIISMaxIt       ....    12
   Startup error        DIISStart       ....  0.200000
   # of expansion vecs  DIISMaxEq       ....     5
   Bias factor          DIISBfac        ....   1.050
   Max. coefficient     DIISMaxC        ....  10.000
 Newton-Raphson         CNVNR           .... off
 SOSCF                  CNVSOSCF        .... on
   Start iteration      SOSCFMaxIt      ....   150
   Startup grad/error   SOSCFStart      ....  0.003300
 Level Shifting         CNVShift        .... on
   Level shift para.    LevelShift      ....    0.2500
   Turn off err/grad.   ShiftErr        ....    0.0010
 Zerner damping         CNVZerner       .... off
 Static damping         CNVDamp         .... on
   Fraction old density DampFac         ....    0.7000
   Max. Damping (<1)    DampMax         ....    0.9800
   Min. Damping (>=0)   DampMin         ....    0.0000
   Turn off err/grad.   DampErr         ....    0.1000
 Fernandez-Rico         CNVRico         .... off

SCF Procedure:
 Maximum # iterations   MaxIter         ....   125
 SCF integral mode      SCFMode         .... Direct
   Integral package                     .... LIBINT
 Reset frequency        DirectResetFreq ....    20
 Integral Threshold     Thresh          ....  1.000e-10 Eh
 Primitive CutOff       TCut            ....  1.000e-11 Eh

Convergence Tolerance:
 Convergence Check Mode ConvCheckMode   .... Total+1el-Energy
 Convergence forced     ConvForced      .... 0
 Energy Change          TolE            ....  1.000e-06 Eh
 1-El. energy change                    ....  1.000e-03 Eh
 Orbital Gradient       TolG            ....  5.000e-05
 Orbital Rotation angle TolX            ....  5.000e-05
 DIIS Error             TolErr          ....  1.000e-06


Diagonalization of the overlap matrix:
Smallest eigenvalue                        ... 7.387e-04
Time for diagonalization                   ...    0.015 sec
Threshold for overlap eigenvalues          ... 1.000e-08
Number of eigenvalues below threshold      ... 0
Time for construction of square roots      ...    0.027 sec
Total time needed                          ...    0.042 sec

-------------------
DFT GRID GENERATION
-------------------

General Integration Accuracy     IntAcc      ...  4.340
Radial Grid Type                 RadialGrid  ... Gauss-Chebyshev
Angular Grid (max. acc.)         AngularGrid ... Lebedev-110
Angular grid pruning method      GridPruning ... 3 (G Style)
Weight generation scheme         WeightScheme... Becke
Basis function cutoff            BFCut       ...    1.0000e-10
Integration weight cutoff        WCut        ...    1.0000e-14
Grids for H and He will be reduced by one unit

# of grid points (after initial pruning)     ...  41088 (   0.0 sec)
# of grid points (after weights+screening)   ...  37165 (   0.0 sec)
nearest neighbour list constructed           ...    0.0 sec
Grid point re-assignment to atoms done       ...    0.0 sec
Grid point division into batches done        ...    0.0 sec
Reduced shell lists constructed in    0.1 sec

Total number of grid points                  ...    37165
Total number of batches                      ...      600
Average number of points per batch           ...       61
Average number of grid points per atom       ...     1093
Average number of shells per batch           ...    72.31 (46.95%)
Average number of basis functions per batch  ...   142.00 (44.10%)
Average number of large shells per batch     ...    46.27 (63.99%)
Average number of large basis fcns per batch ...    95.81 (67.47%)
Maximum spatial batch extension              ...  15.30, 16.93, 15.98 au
Average spatial batch extension              ...   0.15,  0.17,  0.16 au

Time for grid setup =    0.153 sec

------------------------------
INITIAL GUESS: MODEL POTENTIAL
------------------------------
Loading Hartree-Fock densities                     ... done
Calculating cut-offs                               ... done
Setting up the integral package                    ... done
Initializing the effective Hamiltonian             ... done
Starting the Coulomb interaction                   ... done (   0.0 sec)
Reading the grid                                   ... done
Mapping shells                                     ... done
Starting the XC term evaluation                    ... done (   0.0 sec)
  promolecular density results
     # of electrons  =    133.986388904
     EX              =   -126.668784771
     EC              =     -4.611046543
     EX+EC           =   -131.279831314
Transforming the Hamiltonian                       ... done (   0.0 sec)
Diagonalizing the Hamiltonian                      ... done (   0.0 sec)
Back transforming the eigenvectors                 ... done (   0.0 sec)
Now organizing SCF variables                       ... done
                      ------------------
                      INITIAL GUESS DONE (   0.3 sec)
                      ------------------
--------------
SCF ITERATIONS
--------------
ITER       Energy         Delta-E        Max-DP      RMS-DP      [F,P]     Damp
               ***  Starting incremental Fock matrix formation  ***
  0  -1339.4399601113   0.000000000000 0.06691973  0.00152689  0.1664343 0.7000
  1  -1339.6200670178  -0.180106906533 0.04466418  0.00111713  0.0996189 0.7000
                               ***Turning on DIIS***
  2  -1339.7076283977  -0.087561379888 0.08569067  0.00211725  0.0508429 0.0000
  3  -1339.8394695722  -0.131841174510 0.04333675  0.00094739  0.0408859 0.0000
  4  -1339.8679203672  -0.028450795021 0.00720005  0.00019963  0.0075283 0.0000
                      *** Initiating the SOSCF procedure ***
                           *** Shutting down DIIS ***
                      *** Re-Reading the Fockian *** 
                      *** Removing any level shift *** 
ITER      Energy       Delta-E        Grad      Rot      Max-DP    RMS-DP
  5  -1339.86884297  -0.0009226027  0.001407  0.001407  0.003350  0.000103
               *** Restarting incremental Fock matrix formation ***
  6  -1339.86903791  -0.0001949440  0.001144  0.003236  0.002397  0.000065
  7  -1339.86910498  -0.0000670674  0.000692  0.004355  0.003153  0.000068
  8  -1339.86912333  -0.0000183449  0.000410  0.000806  0.000863  0.000022
  9  -1339.86912834  -0.0000050105  0.000162  0.000401  0.000291  0.000009
 10  -1339.86912884  -0.0000005030  0.000063  0.000188  0.000146  0.000004
                 **** Energy Check signals convergence ****
              ***Rediagonalizing the Fockian in SOSCF/NRSCF***

               *****************************************************
               *                     SUCCESS                       *
               *           SCF CONVERGED AFTER  11 CYCLES          *
               *****************************************************

Setting up the final grid:

General Integration Accuracy     IntAcc      ...  4.670
Radial Grid Type                 RadialGrid  ... Gauss-Chebyshev
Angular Grid (max. acc.)         AngularGrid ... Lebedev-302
Angular grid pruning method      GridPruning ... 3 (G Style)
Weight generation scheme         WeightScheme... Becke
Basis function cutoff            BFCut       ...    1.0000e-10
Integration weight cutoff        WCut        ...    1.0000e-14
Grids for H and He will be reduced by one unit

# of grid points (after initial pruning)     ... 161752 (   0.0 sec)
# of grid points (after weights+screening)   ... 143562 (   0.1 sec)
nearest neighbour list constructed           ...    0.0 sec
Grid point re-assignment to atoms done       ...    0.0 sec
Grid point division into batches done        ...    0.5 sec
Reduced shell lists constructed in    0.5 sec

Total number of grid points                  ...   143562
Total number of batches                      ...     2263
Average number of points per batch           ...       63
Average number of grid points per atom       ...     4222
Average number of shells per batch           ...    66.67 (43.29%)
Average number of basis functions per batch  ...   131.23 (40.75%)
Average number of large shells per batch     ...    41.39 (62.08%)
Average number of large basis fcns per batch ...    85.47 (65.13%)
Maximum spatial batch extension              ...  14.62, 14.11, 12.17 au
Average spatial batch extension              ...   0.10,  0.10,  0.10 au

Final grid set up in    0.9 sec
Final integration                            ... done (   0.2 sec)
Change in XC energy                          ...     0.005876125
Integrated number of electrons               ...   133.999803139
Previous integrated no of electrons          ...   133.998685341

----------------
TOTAL SCF ENERGY
----------------

Total Energy       :        -1339.86325300 Eh          -36459.53268 eV

Components:
Nuclear Repulsion  :         1260.81181032 Eh           34308.43357 eV
Electronic Energy  :        -2600.67506332 Eh          -70767.96625 eV
One Electron Energy:        -4338.44243265 Eh         -118055.02039 eV
Two Electron Energy:         1737.76736933 Eh           47287.05415 eV

Virial components:
Potential Energy   :        -2671.06568237 Eh          -72683.39237 eV
Kinetic Energy     :         1331.20242937 Eh           36223.85969 eV
Virial Ratio       :            2.00650602


DFT components:
N(Alpha)           :       66.999901569422 electrons
N(Beta)            :       66.999901569422 electrons
N(Total)           :      133.999803138843 electrons
E(XC)              :      -94.187580078777 Eh       
DFET-embed. en.    :        0.000000000000 Eh       

---------------
SCF CONVERGENCE
---------------

  Last Energy change         ...   -2.8540e-07  Tolerance :   1.0000e-06
  Last MAX-Density change    ...    3.3142e-05  Tolerance :   1.0000e-05
  Last RMS-Density change    ...    7.1221e-07  Tolerance :   1.0000e-06
  Last Orbital Gradient      ...    8.3321e-06  Tolerance :   5.0000e-05
  Last Orbital Rotation      ...    2.3928e-05  Tolerance :   5.0000e-05

             **** THE GBW FILE WAS UPDATED (config_7376.gbw) ****
             **** DENSITY FILE WAS UPDATED (config_7376.scfp) ****
             **** ENERGY FILE WAS UPDATED (config_7376.en.tmp) ****
             **** THE GBW FILE WAS UPDATED (config_7376.gbw) ****
             **** DENSITY FILE WAS UPDATED (config_7376.scfp) ****
----------------
ORBITAL ENERGIES
----------------

  NO   OCC          E(Eh)            E(eV) 
   0   2.0000     -88.963341     -2420.8156 
   1   2.0000     -88.962003     -2420.7792 
   2   2.0000     -10.328967      -281.0655 
   3   2.0000     -10.328378      -281.0494 
   4   2.0000     -10.318720      -280.7866 
   5   2.0000     -10.312250      -280.6106 
   6   2.0000     -10.306893      -280.4648 
   7   2.0000     -10.302110      -280.3347 
   8   2.0000     -10.299615      -280.2668 
   9   2.0000     -10.296404      -280.1794 
  10   2.0000     -10.296072      -280.1704 
  11   2.0000     -10.295830      -280.1638 
  12   2.0000     -10.295125      -280.1446 
  13   2.0000     -10.285417      -279.8804 
  14   2.0000     -10.283081      -279.8169 
  15   2.0000     -10.275925      -279.6221 
  16   2.0000      -8.077456      -219.7987 
  17   2.0000      -8.076685      -219.7778 
  18   2.0000      -6.036093      -164.2504 
  19   2.0000      -6.035248      -164.2274 
  20   2.0000      -6.032113      -164.1421 
  21   2.0000      -6.031148      -164.1159 
  22   2.0000      -6.028054      -164.0317 
  23   2.0000      -6.027444      -164.0151 
  24   2.0000      -1.002391       -27.2765 
  25   2.0000      -0.977802       -26.6074 
  26   2.0000      -0.911253       -24.7964 
  27   2.0000      -0.905664       -24.6444 
  28   2.0000      -0.870681       -23.6924 
  29   2.0000      -0.851633       -23.1741 
  30   2.0000      -0.843393       -22.9499 
  31   2.0000      -0.815153       -22.1814 
  32   2.0000      -0.777830       -21.1658 
  33   2.0000      -0.767305       -20.8794 
  34   2.0000      -0.706178       -19.2161 
  35   2.0000      -0.696836       -18.9619 
  36   2.0000      -0.690702       -18.7949 
  37   2.0000      -0.662914       -18.0388 
  38   2.0000      -0.640648       -17.4329 
  39   2.0000      -0.608140       -16.5483 
  40   2.0000      -0.596217       -16.2239 
  41   2.0000      -0.573585       -15.6080 
  42   2.0000      -0.573058       -15.5937 
  43   2.0000      -0.557347       -15.1662 
  44   2.0000      -0.528871       -14.3913 
  45   2.0000      -0.523336       -14.2407 
  46   2.0000      -0.517600       -14.0846 
  47   2.0000      -0.512923       -13.9573 
  48   2.0000      -0.505170       -13.7464 
  49   2.0000      -0.495239       -13.4761 
  50   2.0000      -0.492479       -13.4010 
  51   2.0000      -0.479987       -13.0611 
  52   2.0000      -0.470779       -12.8105 
  53   2.0000      -0.460223       -12.5233 
  54   2.0000      -0.456216       -12.4143 
  55   2.0000      -0.449112       -12.2210 
  56   2.0000      -0.438248       -11.9253 
  57   2.0000      -0.437898       -11.9158 
  58   2.0000      -0.425928       -11.5901 
  59   2.0000      -0.422500       -11.4968 
  60   2.0000      -0.417329       -11.3561 
  61   2.0000      -0.413954       -11.2643 
  62   2.0000      -0.410665       -11.1748 
  63   2.0000      -0.350972        -9.5504 
  64   2.0000      -0.328398        -8.9362 
  65   2.0000      -0.324108        -8.8194 
  66   2.0000      -0.293158        -7.9772 
  67   0.0000       0.029516         0.8032 
  68   0.0000       0.068264         1.8576 
  69   0.0000       0.107895         2.9360 
  70   0.0000       0.124129         3.3777 
  71   0.0000       0.129659         3.5282 
  72   0.0000       0.137940         3.7535 
  73   0.0000       0.147875         4.0239 
  74   0.0000       0.152123         4.1395 
  75   0.0000       0.163405         4.4465 
  76   0.0000       0.171040         4.6542 
  77   0.0000       0.174945         4.7605 
  78   0.0000       0.189458         5.1554 
  79   0.0000       0.190149         5.1742 
  80   0.0000       0.193147         5.2558 
  81   0.0000       0.200608         5.4588 
  82   0.0000       0.208136         5.6637 
  83   0.0000       0.211862         5.7651 
  84   0.0000       0.219649         5.9770 
  85   0.0000       0.223172         6.0728 
  86   0.0000       0.231825         6.3083 
  87   0.0000       0.239950         6.5294 
  88   0.0000       0.241324         6.5668 
  89   0.0000       0.251425         6.8416 
  90   0.0000       0.259494         7.0612 
  91   0.0000       0.266159         7.2426 
  92   0.0000       0.270751         7.3675 
  93   0.0000       0.295536         8.0420 
  94   0.0000       0.303531         8.2595 
  95   0.0000       0.316161         8.6032 
  96   0.0000       0.321679         8.7533 
  97   0.0000       0.329972         8.9790 
  98   0.0000       0.348656         9.4874 
  99   0.0000       0.370785        10.0896 
 100   0.0000       0.384734        10.4691 
 101   0.0000       0.395851        10.7717 
 102   0.0000       0.410852        11.1799 
 103   0.0000       0.424898        11.5621 
 104   0.0000       0.430014        11.7013 
 105   0.0000       0.443892        12.0789 
 106   0.0000       0.458174        12.4675 
 107   0.0000       0.476206        12.9582 
 108   0.0000       0.486075        13.2268 
 109   0.0000       0.493663        13.4332 
 110   0.0000       0.497396        13.5348 
 111   0.0000       0.509509        13.8644 
 112   0.0000       0.512467        13.9449 
 113   0.0000       0.524677        14.2772 
 114   0.0000       0.534619        14.5477 
 115   0.0000       0.546132        14.8610 
 116   0.0000       0.549925        14.9642 
 117   0.0000       0.553746        15.0682 
 118   0.0000       0.557814        15.1789 
 119   0.0000       0.559371        15.2212 
 120   0.0000       0.575852        15.6697 
 121   0.0000       0.588910        16.0251 
 122   0.0000       0.600121        16.3301 
 123   0.0000       0.608916        16.5694 
 124   0.0000       0.613456        16.6930 
 125   0.0000       0.625630        17.0243 
 126   0.0000       0.632555        17.2127 
 127   0.0000       0.643223        17.5030 
 128   0.0000       0.651287        17.7224 
 129   0.0000       0.655094        17.8260 
 130   0.0000       0.669261        18.2115 
 131   0.0000       0.674842        18.3634 
 132   0.0000       0.677977        18.4487 
 133   0.0000       0.703490        19.1429 
 134   0.0000       0.706147        19.2152 
 135   0.0000       0.713207        19.4074 
 136   0.0000       0.723463        19.6864 
 137   0.0000       0.724055        19.7025 
 138   0.0000       0.729633        19.8543 
 139   0.0000       0.738456        20.0944 
 140   0.0000       0.741760        20.1843 
 141   0.0000       0.745512        20.2864 
 142   0.0000       0.747604        20.3433 
 143   0.0000       0.753581        20.5060 
 144   0.0000       0.760369        20.6907 
 145   0.0000       0.762406        20.7461 
 146   0.0000       0.767632        20.8883 
 147   0.0000       0.774160        21.0660 
 148   0.0000       0.775678        21.1073 
 149   0.0000       0.779684        21.2163 
 150   0.0000       0.782416        21.2906 
 151   0.0000       0.783953        21.3325 
 152   0.0000       0.788220        21.4486 
 153   0.0000       0.793260        21.5857 
 154   0.0000       0.796957        21.6863 
 155   0.0000       0.801570        21.8118 
 156   0.0000       0.804004        21.8781 
 157   0.0000       0.811458        22.0809 
 158   0.0000       0.816458        22.2170 
 159   0.0000       0.821192        22.3458 
 160   0.0000       0.828394        22.5417 
 161   0.0000       0.829311        22.5667 
 162   0.0000       0.840060        22.8592 
 163   0.0000       0.845483        23.0068 
 164   0.0000       0.847531        23.0625 
 165   0.0000       0.849271        23.1098 
 166   0.0000       0.868819        23.6418 
 167   0.0000       0.876051        23.8386 
 168   0.0000       0.882293        24.0084 
 169   0.0000       0.890892        24.2424 
 170   0.0000       0.904592        24.6152 
 171   0.0000       0.923051        25.1175 
 172   0.0000       0.929421        25.2908 
 173   0.0000       0.936127        25.4733 
 174   0.0000       0.958776        26.0896 
 175   0.0000       0.974286        26.5117 
 176   0.0000       0.984865        26.7996 
 177   0.0000       0.997045        27.1310 
 178   0.0000       1.013678        27.5836 
 179   0.0000       1.040792        28.3214 
 180   0.0000       1.051725        28.6189 
 181   0.0000       1.068873        29.0855 
 182   0.0000       1.072334        29.1797 
 183   0.0000       1.084566        29.5125 
 184   0.0000       1.099923        29.9304 
 185   0.0000       1.119813        30.4717 
 186   0.0000       1.131817        30.7983 
 187   0.0000       1.149101        31.2686 
 188   0.0000       1.157110        31.4866 
 189   0.0000       1.168137        31.7866 
 190   0.0000       1.195108        32.5205 
 191   0.0000       1.210739        32.9459 
 192   0.0000       1.249157        33.9913 
 193   0.0000       1.267583        34.4927 
 194   0.0000       1.277297        34.7570 
 195   0.0000       1.308623        35.6095 
 196   0.0000       1.314226        35.7619 
 197   0.0000       1.317404        35.8484 
 198   0.0000       1.341490        36.5038 
 199   0.0000       1.346664        36.6446 
 200   0.0000       1.385791        37.7093 
 201   0.0000       1.410111        38.3711 
 202   0.0000       1.414258        38.4839 
 203   0.0000       1.426890        38.8276 
 204   0.0000       1.453625        39.5552 
 205   0.0000       1.472676        40.0736 
 206   0.0000       1.477210        40.1969 
 207   0.0000       1.493739        40.6467 
 208   0.0000       1.550487        42.1909 
 209   0.0000       1.572737        42.7963 
 210   0.0000       1.582846        43.0714 
 211   0.0000       1.612503        43.8784 
 212   0.0000       1.625267        44.2257 
 213   0.0000       1.646445        44.8021 
 214   0.0000       1.648274        44.8518 
 215   0.0000       1.655655        45.0527 
 216   0.0000       1.679208        45.6936 
 217   0.0000       1.698581        46.2207 
 218   0.0000       1.740850        47.3709 
 219   0.0000       1.765756        48.0487 
 220   0.0000       1.772854        48.2418 
 221   0.0000       1.790408        48.7195 
 222   0.0000       1.795675        48.8628 
 223   0.0000       1.804651        49.1070 
 224   0.0000       1.809577        49.2411 
 225   0.0000       1.818975        49.4968 
 226   0.0000       1.832043        49.8524 
 227   0.0000       1.837772        50.0083 
 228   0.0000       1.841079        50.0983 
 229   0.0000       1.851114        50.3714 
 230   0.0000       1.858586        50.5747 
 231   0.0000       1.866140        50.7802 
 232   0.0000       1.880999        51.1846 
 233   0.0000       1.893596        51.5274 
 234   0.0000       1.898576        51.6629 
 235   0.0000       1.903239        51.7898 
 236   0.0000       1.908740        51.9395 
 237   0.0000       1.916013        52.1374 
 238   0.0000       1.928075        52.4656 
 239   0.0000       1.931427        52.5568 
 240   0.0000       1.935312        52.6625 
 241   0.0000       1.938043        52.7368 
 242   0.0000       1.941689        52.8360 
 243   0.0000       1.959016        53.3075 
 244   0.0000       1.974806        53.7372 
 245   0.0000       1.980035        53.8795 
 246   0.0000       1.997258        54.3482 
 247   0.0000       2.001454        54.4623 
 248   0.0000       2.013344        54.7859 
 249   0.0000       2.023594        55.0648 
 250   0.0000       2.028425        55.1963 
 251   0.0000       2.060096        56.0581 
 252   0.0000       2.063181        56.1420 
 253   0.0000       2.068560        56.2884 
 254   0.0000       2.091095        56.9016 
 255   0.0000       2.093044        56.9546 
 256   0.0000       2.103060        57.2272 
 257   0.0000       2.114907        57.5496 
 258   0.0000       2.127002        57.8787 
 259   0.0000       2.133081        58.0441 
 260   0.0000       2.162023        58.8316 
 261   0.0000       2.187558        59.5265 
 262   0.0000       2.193432        59.6863 
 263   0.0000       2.207229        60.0617 
 264   0.0000       2.217583        60.3435 
 265   0.0000       2.246686        61.1354 
 266   0.0000       2.263184        61.5844 
 267   0.0000       2.276335        61.9422 
 268   0.0000       2.287578        62.2482 
 269   0.0000       2.299005        62.5591 
 270   0.0000       2.310208        62.8639 
 271   0.0000       2.365904        64.3795 
 272   0.0000       2.372370        64.5555 
 273   0.0000       2.376395        64.6650 
 274   0.0000       2.405619        65.4602 
 275   0.0000       2.416622        65.7596 
 276   0.0000       2.426840        66.0377 
 277   0.0000       2.434931        66.2578 
 278   0.0000       2.452304        66.7306 
 279   0.0000       2.472725        67.2863 
 280   0.0000       2.475851        67.3713 
 281   0.0000       2.486215        67.6533 
 282   0.0000       2.494854        67.8884 
 283   0.0000       2.519152        68.5496 
 284   0.0000       2.529152        68.8217 
 285   0.0000       2.547044        69.3086 
 286   0.0000       2.561284        69.6961 
 287   0.0000       2.571664        69.9785 
 288   0.0000       2.590857        70.5008 
 289   0.0000       2.599888        70.7466 
 290   0.0000       2.638029        71.7844 
 291   0.0000       2.641123        71.8686 
 292   0.0000       2.660848        72.4054 
 293   0.0000       2.682735        73.0009 
 294   0.0000       2.689537        73.1860 
 295   0.0000       2.703435        73.5642 
 296   0.0000       2.743830        74.6634 
 297   0.0000       2.759399        75.0871 
 298   0.0000       2.802987        76.2732 
 299   0.0000       2.817847        76.6775 
 300   0.0000       2.822967        76.8168 
 301   0.0000       2.850251        77.5593 
 302   0.0000       2.862915        77.9039 
 303   0.0000       2.899724        78.9055 
 304   0.0000       2.901812        78.9623 
 305   0.0000       2.964876        80.6784 
 306   0.0000       2.989540        81.3495 
 307   0.0000       2.994537        81.4855 
 308   0.0000       3.017398        82.1076 
 309   0.0000       3.033586        82.5481 
 310   0.0000       3.041515        82.7638 
 311   0.0000       3.086650        83.9920 
 312   0.0000       3.106469        84.5313 
 313   0.0000       3.113793        84.7306 
 314   0.0000       3.124226        85.0145 
 315   0.0000       3.132364        85.2360 
 316   0.0000       3.146075        85.6091 
 317   0.0000       3.193951        86.9118 
 318   0.0000       3.210895        87.3729 
 319   0.0000       3.243061        88.2482 
 320   0.0000       3.367104        91.6235 
 321   0.0000       3.450995        93.9063 

                    ********************************
                    * MULLIKEN POPULATION ANALYSIS *
                    ********************************

-----------------------
MULLIKEN ATOMIC CHARGES
-----------------------
   0 S :    0.088640
   1 C :   -0.117868
   2 C :   -0.094882
   3 C :    0.042331
   4 C :   -0.171158
   5 H :    0.018120
   6 C :    0.030384
   7 H :    0.055501
   8 H :    0.033135
   9 C :   -0.082181
  10 H :    0.041928
  11 H :    0.044085
  12 C :   -0.075726
  13 H :    0.044997
  14 H :    0.024851
  15 H :    0.029023
  16 S :    0.091092
  17 C :   -0.086828
  18 C :   -0.002972
  19 C :   -0.052870
  20 C :   -0.134498
  21 H :    0.014023
  22 C :    0.076662
  23 H :    0.033991
  24 H :    0.015711
  25 C :   -0.094946
  26 H :    0.032214
  27 H :    0.028833
  28 C :   -0.035506
  29 H :    0.030589
  30 H :    0.031683
  31 H :    0.036066
  32 H :    0.057858
  33 H :    0.047717
Sum of atomic charges:   -0.0000000

--------------------------------
MULLIKEN REDUCED ORBITAL CHARGES
--------------------------------
  0 S s       :     5.849006  s :     5.849006
      pz      :     3.426970  p :     9.955483
      px      :     3.265381
      py      :     3.263132
      dz2     :     0.021865  d :     0.106871
      dxz     :     0.025431
      dyz     :     0.015779
      dx2y2   :     0.025421
      dxy     :     0.018374
  1 C s       :     3.176563  s :     3.176563
      pz      :     0.941620  p :     2.906840
      px      :     0.977162
      py      :     0.988058
      dz2     :     0.007806  d :     0.034465
      dxz     :     0.008117
      dyz     :     0.006064
      dx2y2   :     0.005591
      dxy     :     0.006888
  2 C s       :     3.077281  s :     3.077281
      pz      :     1.004145  p :     2.974167
      px      :     0.996117
      py      :     0.973904
      dz2     :     0.008683  d :     0.043435
      dxz     :     0.008075
      dyz     :     0.009786
      dx2y2   :     0.008814
      dxy     :     0.008076
  3 C s       :     3.181268  s :     3.181268
      pz      :     0.910548  p :     2.743101
      px      :     0.924861
      py      :     0.907692
      dz2     :     0.008476  d :     0.033301
      dxz     :     0.006519
      dyz     :     0.006796
      dx2y2   :     0.004737
      dxy     :     0.006773
  4 C s       :     3.103904  s :     3.103904
      pz      :     1.030179  p :     3.022713
      px      :     1.042340
      py      :     0.950194
      dz2     :     0.011526  d :     0.044540
      dxz     :     0.009412
      dyz     :     0.006141
      dx2y2   :     0.009204
      dxy     :     0.008258
  5 H s       :     0.957509  s :     0.957509
      pz      :     0.005784  p :     0.024371
      px      :     0.007350
      py      :     0.011237
  6 C s       :     3.017258  s :     3.017258
      pz      :     0.908407  p :     2.918672
      px      :     1.017325
      py      :     0.992940
      dz2     :     0.006109  d :     0.033686
      dxz     :     0.007873
      dyz     :     0.009095
      dx2y2   :     0.002950
      dxy     :     0.007658
  7 H s       :     0.922165  s :     0.922165
      pz      :     0.006039  p :     0.022334
      px      :     0.010152
      py      :     0.006143
  8 H s       :     0.945446  s :     0.945446
      pz      :     0.006037  p :     0.021419
      px      :     0.007035
      py      :     0.008347
  9 C s       :     3.080662  s :     3.080662
      pz      :     0.964896  p :     2.966842
      px      :     0.995058
      py      :     1.006888
      dz2     :     0.005479  d :     0.034678
      dxz     :     0.007840
      dyz     :     0.009081
      dx2y2   :     0.004855
      dxy     :     0.007423
 10 H s       :     0.936295  s :     0.936295
      pz      :     0.005472  p :     0.021776
      px      :     0.007284
      py      :     0.009020
 11 H s       :     0.933462  s :     0.933462
      pz      :     0.005273  p :     0.022453
      px      :     0.012285
      py      :     0.004896
 12 C s       :     3.032652  s :     3.032652
      pz      :     0.971923  p :     3.015333
      px      :     1.019496
      py      :     1.023914
      dz2     :     0.004384  d :     0.027741
      dxz     :     0.006792
      dyz     :     0.007399
      dx2y2   :     0.002279
      dxy     :     0.006887
 13 H s       :     0.932727  s :     0.932727
      pz      :     0.003841  p :     0.022276
      px      :     0.009786
      py      :     0.008649
 14 H s       :     0.950932  s :     0.950932
      pz      :     0.007382  p :     0.024217
      px      :     0.006385
      py      :     0.010451
 15 H s       :     0.948118  s :     0.948118
      pz      :     0.008967  p :     0.022858
      px      :     0.007103
      py      :     0.006788
 16 S s       :     5.854376  s :     5.854376
      pz      :     3.600216  p :     9.956440
      px      :     3.008729
      py      :     3.347494
      dz2     :     0.013104  d :     0.098093
      dxz     :     0.018707
      dyz     :     0.013190
      dx2y2   :     0.012312
      dxy     :     0.040779
 17 C s       :     3.174812  s :     3.174812
      pz      :     1.053167  p :     2.878436
      px      :     0.900589
      py      :     0.924680
      dz2     :     0.003582  d :     0.033580
      dxz     :     0.003303
      dyz     :     0.007173
      dx2y2   :     0.008726
      dxy     :     0.010797
 18 C s       :     3.168434  s :     3.168434
      pz      :     0.986965  p :     2.800045
      px      :     0.943605
      py      :     0.869475
      dz2     :     0.003094  d :     0.034493
      dxz     :     0.006078
      dyz     :     0.005591
      dx2y2   :     0.009202
      dxy     :     0.010527
 19 C s       :     3.080734  s :     3.080734
      pz      :     0.992741  p :     2.931312
      px      :     0.974570
      py      :     0.964001
      dz2     :     0.004841  d :     0.040824
      dxz     :     0.006159
      dyz     :     0.007058
      dx2y2   :     0.012861
      dxy     :     0.009905
 20 C s       :     3.050155  s :     3.050155
      pz      :     1.100258  p :     3.040239
      px      :     0.943495
      py      :     0.996486
      dz2     :     0.005472  d :     0.044104
      dxz     :     0.006467
      dyz     :     0.007984
      dx2y2   :     0.010194
      dxy     :     0.013987
 21 H s       :     0.961525  s :     0.961525
      pz      :     0.006435  p :     0.024452
      px      :     0.006688
      py      :     0.011329
 22 C s       :     2.970999  s :     2.970999
      pz      :     0.986889  p :     2.918212
      px      :     0.974605
      py      :     0.956719
      dz2     :     0.007743  d :     0.034127
      dxz     :     0.008445
      dyz     :     0.005192
      dx2y2   :     0.004759
      dxy     :     0.007987
 23 H s       :     0.944879  s :     0.944879
      pz      :     0.004607  p :     0.021130
      px      :     0.006136
      py      :     0.010387
 24 H s       :     0.960347  s :     0.960347
      pz      :     0.007900  p :     0.023942
      px      :     0.011289
      py      :     0.004753
 25 C s       :     3.064340  s :     3.064340
      pz      :     0.967932  p :     2.991902
      px      :     1.001048
      py      :     1.022922
      dz2     :     0.008043  d :     0.038704
      dxz     :     0.009038
      dyz     :     0.006225
      dx2y2   :     0.006985
      dxy     :     0.008412
 26 H s       :     0.945539  s :     0.945539
      pz      :     0.004804  p :     0.022247
      px      :     0.006741
      py      :     0.010702
 27 H s       :     0.949896  s :     0.949896
      pz      :     0.006444  p :     0.021271
      px      :     0.010850
      py      :     0.003977
 28 C s       :     3.004247  s :     3.004247
      pz      :     1.028226  p :     3.000816
      px      :     1.007448
      py      :     0.965142
      dz2     :     0.007415  d :     0.030443
      dxz     :     0.002771
      dyz     :     0.004669
      dx2y2   :     0.008086
      dxy     :     0.007502
 29 H s       :     0.946115  s :     0.946115
      pz      :     0.013318  p :     0.023295
      px      :     0.004591
      py      :     0.005386
 30 H s       :     0.945454  s :     0.945454
      pz      :     0.006756  p :     0.022863
      px      :     0.004039
      py      :     0.012068
 31 H s       :     0.938797  s :     0.938797
      pz      :     0.006115  p :     0.025137
      px      :     0.012602
      py      :     0.006421
 32 H s       :     0.918453  s :     0.918453
      pz      :     0.005054  p :     0.023689
      px      :     0.008749
      py      :     0.009886
 33 H s       :     0.927010  s :     0.927010
      pz      :     0.005603  p :     0.025272
      px      :     0.015373
      py      :     0.004297


                     *******************************
                     * LOEWDIN POPULATION ANALYSIS *
                     *******************************

----------------------
LOEWDIN ATOMIC CHARGES
----------------------
   0 S :    0.396439
   1 C :   -0.208029
   2 C :   -0.066419
   3 C :   -0.060998
   4 C :   -0.188795
   5 H :    0.031416
   6 C :   -0.036902
   7 H :    0.041119
   8 H :    0.032937
   9 C :   -0.039713
  10 H :    0.024716
  11 H :    0.032893
  12 C :   -0.081161
  13 H :    0.028990
  14 H :    0.025478
  15 H :    0.028421
  16 S :    0.373965
  17 C :   -0.153765
  18 C :   -0.061194
  19 C :   -0.053454
  20 C :   -0.198149
  21 H :    0.027468
  22 C :   -0.027578
  23 H :    0.037268
  24 H :    0.023762
  25 C :   -0.049073
  26 H :    0.031749
  27 H :    0.022944
  28 C :   -0.071492
  29 H :    0.031166
  30 H :    0.025083
  31 H :    0.029095
  32 H :    0.033189
  33 H :    0.018626

-------------------------------
LOEWDIN REDUCED ORBITAL CHARGES
-------------------------------
  0 S s       :     5.506564  s :     5.506564
      pz      :     3.422929  p :     9.965033
      px      :     3.257196
      py      :     3.284907
      dz2     :     0.026131  d :     0.131964
      dxz     :     0.032891
      dyz     :     0.017475
      dx2y2   :     0.031578
      dxy     :     0.023889
  1 C s       :     2.924697  s :     2.924697
      pz      :     1.045006  p :     3.200524
      px      :     1.068899
      py      :     1.086619
      dz2     :     0.018073  d :     0.082809
      dxz     :     0.017817
      dyz     :     0.017544
      dx2y2   :     0.012526
      dxy     :     0.016848
  2 C s       :     2.867444  s :     2.867444
      pz      :     1.029759  p :     3.091540
      px      :     1.013420
      py      :     1.048361
      dz2     :     0.020172  d :     0.107435
      dxz     :     0.019003
      dyz     :     0.026424
      dx2y2   :     0.021472
      dxy     :     0.020364
  3 C s       :     2.872652  s :     2.872652
      pz      :     1.031351  p :     3.100473
      px      :     1.026288
      py      :     1.042834
      dz2     :     0.021607  d :     0.087873
      dxz     :     0.018448
      dyz     :     0.019696
      dx2y2   :     0.010887
      dxy     :     0.017235
  4 C s       :     2.915990  s :     2.915990
      pz      :     1.089938  p :     3.167581
      px      :     1.057621
      py      :     1.020022
      dz2     :     0.026627  d :     0.105224
      dxz     :     0.022279
      dyz     :     0.014241
      dx2y2   :     0.022799
      dxy     :     0.019278
  5 H s       :     0.896294  s :     0.896294
      pz      :     0.017373  p :     0.072290
      px      :     0.021891
      py      :     0.033026
  6 C s       :     2.848808  s :     2.848808
      pz      :     1.004567  p :     3.104935
      px      :     1.060482
      py      :     1.039886
      dz2     :     0.013814  d :     0.083159
      dxz     :     0.019807
      dyz     :     0.024050
      dx2y2   :     0.007000
      dxy     :     0.018489
  7 H s       :     0.893887  s :     0.893887
      pz      :     0.017679  p :     0.064994
      px      :     0.029064
      py      :     0.018250
  8 H s       :     0.904440  s :     0.904440
      pz      :     0.017530  p :     0.062622
      px      :     0.020018
      py      :     0.025074
  9 C s       :     2.844287  s :     2.844287
      pz      :     1.019185  p :     3.110994
      px      :     1.049943
      py      :     1.041866
      dz2     :     0.011599  d :     0.084432
      dxz     :     0.019829
      dyz     :     0.023325
      dx2y2   :     0.011830
      dxy     :     0.017848
 10 H s       :     0.910588  s :     0.910588
      pz      :     0.016888  p :     0.064696
      px      :     0.020611
      py      :     0.027197
 11 H s       :     0.900599  s :     0.900599
      pz      :     0.016825  p :     0.066508
      px      :     0.034435
      py      :     0.015248
 12 C s       :     2.848741  s :     2.848741
      pz      :     1.025609  p :     3.163414
      px      :     1.062511
      py      :     1.075294
      dz2     :     0.010397  d :     0.069006
      dxz     :     0.018133
      dyz     :     0.017963
      dx2y2   :     0.004816
      dxy     :     0.017696
 13 H s       :     0.908059  s :     0.908059
      pz      :     0.011471  p :     0.062951
      px      :     0.027790
      py      :     0.023689
 14 H s       :     0.905934  s :     0.905934
      pz      :     0.022093  p :     0.068589
      px      :     0.017311
      py      :     0.029184
 15 H s       :     0.908756  s :     0.908756
      pz      :     0.026350  p :     0.062824
      px      :     0.019795
      py      :     0.016678
 16 S s       :     5.535737  s :     5.535737
      pz      :     3.567133  p :     9.970591
      px      :     3.023856
      py      :     3.379602
      dz2     :     0.015661  d :     0.119707
      dxz     :     0.023446
      dyz     :     0.014290
      dx2y2   :     0.013757
      dxy     :     0.052552
 17 C s       :     2.930692  s :     2.930692
      pz      :     1.062790  p :     3.144023
      px      :     1.037939
      py      :     1.043294
      dz2     :     0.007653  d :     0.079051
      dxz     :     0.006167
      dyz     :     0.014665
      dx2y2   :     0.022300
      dxy     :     0.028267
 18 C s       :     2.866428  s :     2.866428
      pz      :     1.006777  p :     3.104534
      px      :     1.036185
      py      :     1.061572
      dz2     :     0.006878  d :     0.090231
      dxz     :     0.013892
      dyz     :     0.012321
      dx2y2   :     0.027904
      dxy     :     0.029236
 19 C s       :     2.873035  s :     2.873035
      pz      :     0.997551  p :     3.079514
      px      :     1.033467
      py      :     1.048496
      dz2     :     0.010420  d :     0.100905
      dxz     :     0.014130
      dyz     :     0.015188
      dx2y2   :     0.034909
      dxy     :     0.026257
 20 C s       :     2.905963  s :     2.905963
      pz      :     1.085260  p :     3.185484
      px      :     1.032174
      py      :     1.068051
      dz2     :     0.011577  d :     0.106703
      dxz     :     0.015040
      dyz     :     0.017273
      dx2y2   :     0.027324
      dxy     :     0.035488
 21 H s       :     0.899358  s :     0.899358
      pz      :     0.019380  p :     0.073174
      px      :     0.021517
      py      :     0.032277
 22 C s       :     2.836364  s :     2.836364
      pz      :     1.041169  p :     3.105888
      px      :     1.047781
      py      :     1.016938
      dz2     :     0.020732  d :     0.085326
      dxz     :     0.020370
      dyz     :     0.011043
      dx2y2   :     0.011681
      dxy     :     0.021499
 23 H s       :     0.901796  s :     0.901796
      pz      :     0.013535  p :     0.060937
      px      :     0.017528
      py      :     0.029874
 24 H s       :     0.903807  s :     0.903807
      pz      :     0.024805  p :     0.072431
      px      :     0.033153
      py      :     0.014473
 25 C s       :     2.837161  s :     2.837161
      pz      :     1.011210  p :     3.118239
      px      :     1.046451
      py      :     1.060578
      dz2     :     0.020977  d :     0.093672
      dxz     :     0.021795
      dyz     :     0.013479
      dx2y2   :     0.015799
      dxy     :     0.021622
 26 H s       :     0.904298  s :     0.904298
      pz      :     0.015951  p :     0.063953
      px      :     0.018400
      py      :     0.029602
 27 H s       :     0.914881  s :     0.914881
      pz      :     0.019632  p :     0.062175
      px      :     0.030533
      py      :     0.012009
 28 C s       :     2.827783  s :     2.827783
      pz      :     1.072258  p :     3.164994
      px      :     1.060260
      py      :     1.032477
      dz2     :     0.019247  d :     0.078715
      dxz     :     0.006733
      dyz     :     0.012554
      dx2y2   :     0.019165
      dxy     :     0.021017
 29 H s       :     0.905316  s :     0.905316
      pz      :     0.036568  p :     0.063518
      px      :     0.012908
      py      :     0.014042
 30 H s       :     0.912306  s :     0.912306
      pz      :     0.016924  p :     0.062611
      px      :     0.012087
      py      :     0.033600
 31 H s       :     0.900895  s :     0.900895
      pz      :     0.016565  p :     0.070009
      px      :     0.035064
      py      :     0.018381
 32 H s       :     0.892801  s :     0.892801
      pz      :     0.017672  p :     0.074010
      px      :     0.027713
      py      :     0.028625
 33 H s       :     0.900483  s :     0.900483
      pz      :     0.018919  p :     0.080891
      px      :     0.046831
      py      :     0.015141


                      *****************************
                      * MAYER POPULATION ANALYSIS *
                      *****************************

  NA   - Mulliken gross atomic population
  ZA   - Total nuclear charge
  QA   - Mulliken gross atomic charge
  VA   - Mayer's total valence
  BVA  - Mayer's bonded valence
  FA   - Mayer's free valence

  ATOM       NA         ZA         QA         VA         BVA        FA
  0 S     15.9114    16.0000     0.0886     2.4785     2.4785    -0.0000
  1 C      6.1179     6.0000    -0.1179     3.8337     3.8337    -0.0000
  2 C      6.0949     6.0000    -0.0949     3.9872     3.9872     0.0000
  3 C      5.9577     6.0000     0.0423     3.9057     3.9057     0.0000
  4 C      6.1712     6.0000    -0.1712     3.9171     3.9171     0.0000
  5 H      0.9819     1.0000     0.0181     1.0040     1.0040     0.0000
  6 C      5.9696     6.0000     0.0304     3.9296     3.9296     0.0000
  7 H      0.9445     1.0000     0.0555     0.9827     0.9827     0.0000
  8 H      0.9669     1.0000     0.0331     0.9861     0.9861     0.0000
  9 C      6.0822     6.0000    -0.0822     4.0863     4.0863    -0.0000
 10 H      0.9581     1.0000     0.0419     0.9765     0.9765    -0.0000
 11 H      0.9559     1.0000     0.0441     0.9749     0.9749    -0.0000
 12 C      6.0757     6.0000    -0.0757     3.9925     3.9925    -0.0000
 13 H      0.9550     1.0000     0.0450     0.9909     0.9909     0.0000
 14 H      0.9751     1.0000     0.0249     0.9837     0.9837    -0.0000
 15 H      0.9710     1.0000     0.0290     0.9847     0.9847    -0.0000
 16 S     15.9089    16.0000     0.0911     2.4479     2.4479    -0.0000
 17 C      6.0868     6.0000    -0.0868     3.8344     3.8344     0.0000
 18 C      6.0030     6.0000    -0.0030     3.9168     3.9168     0.0000
 19 C      6.0529     6.0000    -0.0529     4.0438     4.0438    -0.0000
 20 C      6.1345     6.0000    -0.1345     3.9035     3.9035    -0.0000
 21 H      0.9860     1.0000     0.0140     0.9970     0.9970     0.0000
 22 C      5.9233     6.0000     0.0767     3.9630     3.9630    -0.0000
 23 H      0.9660     1.0000     0.0340     0.9811     0.9811    -0.0000
 24 H      0.9843     1.0000     0.0157     1.0082     1.0082    -0.0000
 25 C      6.0949     6.0000    -0.0949     4.0746     4.0746    -0.0000
 26 H      0.9678     1.0000     0.0322     0.9755     0.9755    -0.0000
 27 H      0.9712     1.0000     0.0288     0.9840     0.9840    -0.0000
 28 C      6.0355     6.0000    -0.0355     3.9899     3.9899    -0.0000
 29 H      0.9694     1.0000     0.0306     0.9837     0.9837    -0.0000
 30 H      0.9683     1.0000     0.0317     0.9886     0.9886    -0.0000
 31 H      0.9639     1.0000     0.0361     0.9889     0.9889    -0.0000
 32 H      0.9421     1.0000     0.0579     1.0060     1.0060    -0.0000
 33 H      0.9523     1.0000     0.0477     0.9976     0.9976     0.0000

  Mayer bond orders larger than 0.100000
B(  0-S ,  1-C ) :   1.1290 B(  0-S ,  4-C ) :   1.1473 B(  1-C ,  2-C ) :   1.6230 
B(  1-C , 32-H ) :   0.9675 B(  2-C ,  3-C ) :   1.2391 B(  2-C ,  6-C ) :   0.9989 
B(  3-C ,  4-C ) :   1.5706 B(  3-C ,  5-H ) :   0.9918 B(  4-C , 20-C ) :   1.0397 
B(  6-C ,  7-H ) :   0.9410 B(  6-C ,  8-H ) :   0.9526 B(  6-C ,  9-C ) :   1.0600 
B(  9-C , 10-H ) :   0.9587 B(  9-C , 11-H ) :   0.9572 B(  9-C , 12-C ) :   1.0811 
B( 12-C , 13-H ) :   0.9767 B( 12-C , 14-H ) :   0.9727 B( 12-C , 15-H ) :   0.9737 
B( 16-S , 17-C ) :   1.1218 B( 16-S , 20-C ) :   1.1405 B( 17-C , 18-C ) :   1.6313 
B( 17-C , 33-H ) :   0.9792 B( 18-C , 19-C ) :   1.2065 B( 18-C , 21-H ) :   0.9903 
B( 19-C , 20-C ) :   1.6092 B( 19-C , 22-C ) :   1.0564 B( 22-C , 23-H ) :   0.9310 
B( 22-C , 24-H ) :   0.9304 B( 22-C , 25-C ) :   1.0624 B( 25-C , 26-H ) :   0.9547 
B( 25-C , 27-H ) :   0.9540 B( 25-C , 28-C ) :   1.0819 B( 28-C , 29-H ) :   0.9686 
B( 28-C , 30-H ) :   0.9717 B( 28-C , 31-H ) :   0.9761 

-------
TIMINGS
-------

Total SCF time: 0 days 0 hours 0 min 18 sec 

Total time                  ....      18.994 sec
Sum of individual times     ....      18.142 sec  ( 95.5%)

Fock matrix formation       ....      16.480 sec  ( 86.8%)
  XC integration            ....       1.446 sec  (  8.8% of F)
    Basis function eval.    ....       0.146 sec  ( 10.1% of XC)
    Density eval.           ....       0.100 sec  (  6.9% of XC)
    XC-Functional eval.     ....       0.115 sec  (  7.9% of XC)
    XC-Potential eval.      ....       0.118 sec  (  8.1% of XC)
Diagonalization             ....       0.134 sec  (  0.7%)
Density matrix formation    ....       0.024 sec  (  0.1%)
Population analysis         ....       0.057 sec  (  0.3%)
Initial guess               ....       0.164 sec  (  0.9%)
Orbital Transformation      ....       0.000 sec  (  0.0%)
Orbital Orthonormalization  ....       0.000 sec  (  0.0%)
DIIS solution               ....       0.153 sec  (  0.8%)
SOSCF solution              ....       0.127 sec  (  0.7%)
Grid generation             ....       1.003 sec  (  5.3%)


-------------------------------------------------------------------------------
                          DFT DISPERSION CORRECTION                            
                                                                               
                              DFTD3 V3.1  Rev 1                                
                              USING zero damping                               
-------------------------------------------------------------------------------
The omegaB97X-D3 functional is recognized. Fit by Chai et al.
Active option DFTDOPT                   ...         3   

molecular C6(AA) [au] = 14210.227991 


            DFT-D V3
 parameters
 s6 scaling factor         :     1.0000 
 rs6 scaling factor        :     1.2810 
 s8 scaling factor         :     1.0000 
 rs8 scaling factor        :     1.0940 
 Damping factor alpha6     :    14.0000 
 Damping factor alpha8     :    16.0000 
 ad hoc parameters k1-k3   :    16.0000     1.3333    -4.0000 

 Edisp/kcal,au: -8.438461820704  -0.013447543454 
 E6   /kcal   :  -3.798582191 
 E8   /kcal   :  -4.639879629 
 % E8         :  54.984898053 

-------------------------   ----------------
Dispersion correction           -0.013447543
-------------------------   ----------------


-------------------------   --------------------
FINAL SINGLE POINT ENERGY     -1339.876700543884
-------------------------   --------------------


                            ***************************************
                            *     ORCA property calculations      *
                            ***************************************

                                    ---------------------
                                    Active property flags
                                    ---------------------
   (+) Dipole Moment


------------------------------------------------------------------------------
                       ORCA ELECTRIC PROPERTIES CALCULATION
------------------------------------------------------------------------------

Dipole Moment Calculation                       ... on
Quadrupole Moment Calculation                   ... off
Polarizability Calculation                      ... off
GBWName                                         ... config_7376.gbw
Electron density file                           ... config_7376.scfp
The origin for moment calculation is the CENTER OF MASS  = (-151.807386, -12.464170 -112.437497)

-------------
DIPOLE MOMENT
-------------
                                X             Y             Z
Electronic contribution:    -15.25726      16.46838      -9.60750
Nuclear contribution   :     15.31563     -16.95754      10.00215
                        -----------------------------------------
Total Dipole Moment    :      0.05837      -0.48916       0.39465
                        -----------------------------------------
Magnitude (a.u.)       :      0.63121
Magnitude (Debye)      :      1.60442



--------------------
Rotational spectrum 
--------------------
 
Rotational constants in cm-1:     0.019747     0.007281     0.006158 
Rotational constants in MHz :   592.014800   218.264426   184.602498 

 Dipole components along the rotational axes: 
x,y,z [a.u.] :     0.156810    -0.388268     0.472324 
x,y,z [Debye]:     0.398578    -0.986900     1.200551 

 

Timings for individual modules:

Sum of individual times         ...       20.146 sec (=   0.336 min)
GTO integral calculation        ...        0.771 sec (=   0.013 min)   3.8 %
SCF iterations                  ...       19.375 sec (=   0.323 min)  96.2 %
                             ****ORCA TERMINATED NORMALLY****
TOTAL RUN TIME: 0 days 0 hours 0 minutes 20 seconds 834 msec
