
                                 *****************
                                 * O   R   C   A *
                                 *****************

           --- An Ab Initio, DFT and Semiempirical electronic structure package ---

                  #######################################################
                  #                        -***-                        #
                  #          Department of theory and spectroscopy      #
                  #               Directorship: Frank Neese             #
                  #        Max Planck Institute fuer Kohlenforschung    #
                  #                Kaiser Wilhelm Platz 1               #
                  #                 D-45470 Muelheim/Ruhr               #
                  #                      Germany                        #
                  #                                                     #
                  #                  All rights reserved                #
                  #                        -***-                        #
                  #######################################################


                         Program Version 4.2.1 -  RELEASE  -


 With contributions from (in alphabetic order):
   Daniel Aravena         : Magnetic Suceptibility
   Michael Atanasov       : Ab Initio Ligand Field Theory (pilot matlab implementation)
   Alexander A. Auer      : GIAO ZORA, VPT2
   Ute Becker             : Parallelization
   Giovanni Bistoni       : ED, misc. LED, open-shell LED, HFLD
   Martin Brehm           : Molecular dynamics
   Dmytro Bykov           : SCF Hessian
   Vijay G. Chilkuri      : MRCI spin determinant printing, contributions to CSF-ICE
   Dipayan Datta          : RHF DLPNO-CCSD density
   Achintya Kumar Dutta   : EOM-CC, STEOM-CC
   Dmitry Ganyushin       : Spin-Orbit,Spin-Spin,Magnetic field MRCI
   Miquel Garcia          : C-PCM Hessian, Gaussian charge scheme
   Yang Guo               : DLPNO-NEVPT2, CIM, IAO-localization
   Andreas Hansen         : Spin unrestricted coupled pair/coupled cluster methods
   Benjamin Helmich-Paris : CASSCF linear response (MC-RPA)
   Lee Huntington         : MR-EOM, pCC
   Robert Izsak           : Overlap fitted RIJCOSX, COSX-SCS-MP3, EOM
   Christian Kollmar      : KDIIS, OOCD, Brueckner-CCSD(T), CCSD density
   Simone Kossmann        : Meta GGA functionals, TD-DFT gradient, OOMP2, MP2 Hessian
   Martin Krupicka        : AUTO-CI
   Lucas Lang             : DCDCAS
   Dagmar Lenk            : GEPOL surface, SMD
   Dimitrios Liakos       : Extrapolation schemes; Compound Job, initial MDCI parallelization
   Dimitrios Manganas     : Further ROCIS development; embedding schemes
   Dimitrios Pantazis     : SARC Basis sets
   Taras Petrenko         : DFT Hessian,TD-DFT gradient, ASA, ECA, R-Raman, ABS, FL, XAS/XES, NRVS
   Peter Pinski           : DLPNO-MP2, DLPNO-MP2 Gradient
   Christoph Reimann      : Effective Core Potentials
   Marius Retegan         : Local ZFS, SOC
   Christoph Riplinger    : Optimizer, TS searches, QM/MM, DLPNO-CCSD(T), (RO)-DLPNO pert. Triples
   Tobias Risthaus        : Range-separated hybrids, TD-DFT gradient, RPA, STAB
   Michael Roemelt        : Original ROCIS implementation
   Masaaki Saitow         : Open-shell DLPNO-CCSD energy and density
   Barbara Sandhoefer     : DKH picture change effects
   Avijit Sen             : IP-ROCIS
   Kantharuban Sivalingam : CASSCF convergence, NEVPT2, FIC-MRCI
   Bernardo de Souza      : ESD, SOC TD-DFT
   Georgi Stoychev        : AutoAux, RI-MP2 NMR
   Willem Van den Heuvel  : Paramagnetic NMR
   Boris Wezisla          : Elementary symmetry handling
   Frank Wennmohs         : Technical directorship


 We gratefully acknowledge several colleagues who have allowed us to
 interface, adapt or use parts of their codes:
   Stefan Grimme, W. Hujo, H. Kruse,             : VdW corrections, initial TS optimization,
                  C. Bannwarth                     DFT functionals, gCP, sTDA/sTD-DF
   Ed Valeev, F. Pavosevic, A. Kumar             : LibInt (2-el integral package), F12 methods
   Garnet Chan, S. Sharma, J. Yang, R. Olivares  : DMRG
   Ulf Ekstrom                                   : XCFun DFT Library
   Mihaly Kallay                                 : mrcc  (arbitrary order and MRCC methods)
   Andreas Klamt, Michael Diedenhofen            : otool_cosmo (COSMO solvation model)
   Jiri Pittner, Ondrej Demel                    : Mk-CCSD
   Frank Weinhold                                : gennbo (NPA and NBO analysis)
   Christopher J. Cramer and Donald G. Truhlar   : smd solvation model
   Lars Goerigk                                  : TD-DFT with DH, B97 family of functionals
   V. Asgeirsson, H. Jonsson                     : NEB implementation
   FAccTs GmbH                                   : IRC, NEB, NEB-TS, Multilevel, MM, QM/MM, CI optimization
   S Lehtola, MJT Oliveira, MAL Marques          : LibXC Library


 Your calculation uses the libint2 library for the computation of 2-el integrals
 For citations please refer to: http://libint.valeyev.net

 Your ORCA version has been built with support for libXC version: 4.2.3
 For citations please refer to: https://tddft.org/programs/libxc/

 This ORCA versions uses:
   CBLAS   interface :  Fast vector & matrix operations
   LAPACKE interface :  Fast linear algebra routines
   SCALAPACK package :  Parallel linear algebra routines


Your calculation utilizes the atom-pairwise dispersion correction
with the zero-damping scheme (D30)
Cite in your paper:
S.Grimme, J.Antony, S.Ehrlich and H.Krieg, J.Chem.Phys., 132, (2010), 154104 
   

XCFun DFT library Copyright 2009-2010 Ulf Ekstrom and contributors.
See http://admol.org/xcfun for more information. This is free soft-
ware; see the source code for copying conditions. There is ABSOLUTELY
NO WARRANTY; not even for MERCHANTABILITY or FITNESS FOR A PARTICULAR
PURPOSE. For details see the documentation. Scientific users of this 
library should cite U. Ekstrom, L. Visscher, R. Bast, A. J. Thorvald-
sen and K. Ruud; J.Chem.Theor.Comp. 2010, DOI: 10.1021/ct100117s
XCFun Version 0.99 
----- Orbital basis set information -----
Your calculation utilizes the basis: def2-SVP
   F. Weigend and R. Ahlrichs, Phys. Chem. Chem. Phys. 7, 3297 (2005).

================================================================================
                                        WARNINGS
                       Please study these warnings very carefully!
================================================================================


INFO   : the flag for use of LIBINT has been found!

================================================================================
                                       INPUT FILE
================================================================================
NAME = config_1984.inp
|  1> ! wB97X-D3 SP def2-SVP
|  2> %pal
|  3> nprocs 24
|  4> end
|  5> 
|  6> * xyz 0 1
|  7> S 	 -76.174 	 -2.75441 	 9.73896 	 
|  8> C 	 -77.8048 	 -2.43093 	 9.32617 	 
|  9> C 	 -78.4417 	 -1.68458 	 10.3097 	 
| 10> C 	 -77.5481 	 -1.26702 	 11.3242 	 
| 11> C 	 -76.2207 	 -1.72635 	 11.1229 	 
| 12> H 	 -77.8416 	 -0.661065 	 12.2133 	 
| 13> C 	 -79.8396 	 -1.2583 	 10.4628 	 
| 14> H 	 -79.976 	 -0.614414 	 9.54197 	 
| 15> H 	 -79.9402 	 -0.624487 	 11.3449 	 
| 16> C 	 -80.9266 	 -2.24457 	 10.4196 	 
| 17> H 	 -81.8473 	 -1.89954 	 9.98892 	 
| 18> H 	 -80.6562 	 -3.06614 	 9.75852 	 
| 19> C 	 -81.0368 	 -3.09085 	 11.672 	 
| 20> H 	 -80.2519 	 -3.76311 	 11.7893 	 
| 21> H 	 -81.0547 	 -2.48927 	 12.5565 	 
| 22> H 	 -81.9336 	 -3.72325 	 11.5266 	 
| 23> S 	 -74.052 	 -2.89085 	 12.4295 	 
| 24> C 	 -73.0945 	 -1.92069 	 13.6012 	 
| 25> C 	 -73.6632 	 -0.684529 	 13.7431 	 
| 26> C 	 -74.8522 	 -0.511626 	 12.9129 	 
| 27> C 	 -75.1338 	 -1.56722 	 12.0606 	 
| 28> H 	 -73.3178 	 0.00863308 	 14.5356 	 
| 29> C 	 -75.5507 	 0.868293 	 12.9751 	 
| 30> H 	 -75.7282 	 1.28047 	 13.9967 	 
| 31> H 	 -76.5421 	 0.803966 	 12.5911 	 
| 32> C 	 -74.7938 	 1.92903 	 12.1605 	 
| 33> H 	 -73.7258 	 1.97037 	 12.3875 	 
| 34> H 	 -75.2313 	 2.84243 	 12.4734 	 
| 35> C 	 -74.9812 	 1.67859 	 10.6359 	 
| 36> H 	 -74.8347 	 0.582923 	 10.303 	 
| 37> H 	 -74.3386 	 2.34831 	 10.1037 	 
| 38> H 	 -75.9958 	 1.96116 	 10.3562 	 
| 39> H 	 -78.306 	 -2.80934 	 8.43017 	 
| 40> H 	 -72.2584 	 -2.35993 	 14.1106 	 
| 41> *
| 42> 
| 43>                          ****END OF INPUT****
================================================================================

                       ****************************
                       * Single Point Calculation *
                       ****************************

---------------------------------
CARTESIAN COORDINATES (ANGSTROEM)
---------------------------------
  S    -76.174000   -2.754410    9.738960
  C    -77.804800   -2.430930    9.326170
  C    -78.441700   -1.684580   10.309700
  C    -77.548100   -1.267020   11.324200
  C    -76.220700   -1.726350   11.122900
  H    -77.841600   -0.661065   12.213300
  C    -79.839600   -1.258300   10.462800
  H    -79.976000   -0.614414    9.541970
  H    -79.940200   -0.624487   11.344900
  C    -80.926600   -2.244570   10.419600
  H    -81.847300   -1.899540    9.988920
  H    -80.656200   -3.066140    9.758520
  C    -81.036800   -3.090850   11.672000
  H    -80.251900   -3.763110   11.789300
  H    -81.054700   -2.489270   12.556500
  H    -81.933600   -3.723250   11.526600
  S    -74.052000   -2.890850   12.429500
  C    -73.094500   -1.920690   13.601200
  C    -73.663200   -0.684529   13.743100
  C    -74.852200   -0.511626   12.912900
  C    -75.133800   -1.567220   12.060600
  H    -73.317800    0.008633   14.535600
  C    -75.550700    0.868293   12.975100
  H    -75.728200    1.280470   13.996700
  H    -76.542100    0.803966   12.591100
  C    -74.793800    1.929030   12.160500
  H    -73.725800    1.970370   12.387500
  H    -75.231300    2.842430   12.473400
  C    -74.981200    1.678590   10.635900
  H    -74.834700    0.582923   10.303000
  H    -74.338600    2.348310   10.103700
  H    -75.995800    1.961160   10.356200
  H    -78.306000   -2.809340    8.430170
  H    -72.258400   -2.359930   14.110600

----------------------------
CARTESIAN COORDINATES (A.U.)
----------------------------
  NO LB      ZA    FRAG     MASS         X           Y           Z
   0 S    16.0000    0    32.060  -143.947999   -5.205081   18.403967
   1 C     6.0000    0    12.011  -147.029764   -4.593792   17.623907
   2 C     6.0000    0    12.011  -148.233330   -3.183395   19.482510
   3 C     6.0000    0    12.011  -146.544671   -2.394321   21.399637
   4 C     6.0000    0    12.011  -144.036249   -3.262329   21.019235
   5 H     1.0000    0     1.008  -147.099306   -1.249232   23.079792
   6 C     6.0000    0    12.011  -150.874979   -2.377842   19.771827
   7 H     1.0000    0     1.008  -151.132737   -1.161074   18.031710
   8 H     1.0000    0     1.008  -151.065085   -1.180109   21.438754
   9 C     6.0000    0    12.011  -152.929111   -4.241623   19.690190
  10 H     1.0000    0     1.008  -154.668982   -3.589610   18.876323
  11 H     1.0000    0     1.008  -152.418129   -5.794165   18.440930
  12 C     6.0000    0    12.011  -153.137359   -5.840860   22.056883
  13 H     1.0000    0     1.008  -151.654113   -7.111247   22.278548
  14 H     1.0000    0     1.008  -153.171185   -4.704039   23.728346
  15 H     1.0000    0     1.008  -154.832065   -7.035923   21.782117
  16 S    16.0000    0    32.060  -139.938000   -5.462915   23.488351
  17 C     6.0000    0    12.011  -138.128587   -3.629578   25.702543
  18 C     6.0000    0    12.011  -139.203274   -1.293572   25.970695
  19 C     6.0000    0    12.011  -141.450159   -0.966833   24.401845
  20 C     6.0000    0    12.011  -141.982305   -2.961617   22.791231
  21 H     1.0000    0     1.008  -138.550563    0.016314   27.468303
  22 C     6.0000    0    12.011  -142.770132    1.640836   24.519386
  23 H     1.0000    0     1.008  -143.105559    2.419738   26.449930
  24 H     1.0000    0     1.008  -144.643607    1.519276   23.793731
  25 C     6.0000    0    12.011  -141.339799    3.645338   22.980015
  26 H     1.0000    0     1.008  -139.321571    3.723460   23.408982
  27 H     1.0000    0     1.008  -142.166554    5.371414   23.571310
  28 C     6.0000    0    12.011  -141.693933    3.172075   20.098938
  29 H     1.0000    0     1.008  -141.417088    1.101565   19.469848
  30 H     1.0000    0     1.008  -140.479595    4.437663   19.093226
  31 H     1.0000    0     1.008  -143.611249    3.706055   19.570382
  32 H     1.0000    0     1.008  -147.976895   -5.308883   15.930713
  33 H     1.0000    0     1.008  -136.548587   -4.459621   26.665170

--------------------------------
INTERNAL COORDINATES (ANGSTROEM)
--------------------------------
 S      0   0   0     0.000000000000     0.00000000     0.00000000
 C      1   0   0     1.713050943346     0.00000000     0.00000000
 C      2   1   0     1.389248427532   111.54853320     0.00000000
 C      3   2   1     1.414951435068   112.12366051     6.19982086
 C      4   3   2     1.418977272158   113.17509358   358.72714476
 H      4   3   2     1.115267914909   124.45267903   180.24046352
 C      3   2   1     1.469448419782   131.73890123   185.54260001
 H      7   3   2     1.131866613120   101.23918784   298.11148251
 H      7   3   2     1.090843567598   109.90960337   183.60007467
 C      7   3   2     1.468388147902   120.41837224    53.87443077
 H     10   7   3     1.073414856102   115.52200786   213.45606613
 H     10   7   3     1.088632257147   109.93107663   328.47981896
 C     10   7   3     1.515532790275   113.86469370    74.43893698
 H     13  10   7     1.040077308473   113.53147636   290.18837439
 H     13  10   7     1.069840715434   111.74244144    50.57173568
 H     13  10   7     1.106942256850   105.62744825   175.80680745
 S      5   4   3     2.786848309471   142.81789084   225.30486603
 C     17   5   4     1.797469767646   119.64514672   288.07395464
 C     18  17   5     1.368082350563   109.50365672     3.66602736
 C     19  18  17     1.460427501593   112.73358634   359.61606926
 C     20  19  18     1.385637955180   115.14585861   355.12287850
 H     19  18  17     1.108075394163   120.65320230   170.45313335
 C     20  19  18     1.547884858948   116.74970294   181.46319389
 H     23  20  19     1.115823771627   115.96893025   312.68707731
 H     23  20  19     1.065114042218   110.59145773   197.48743204
 C     23  20  19     1.536760798943   111.82555547    77.08504389
 H     26  23  20     1.092639920376   113.41652545   309.92894597
 H     26  23  20     1.060005764135   103.59292147   193.07538012
 C     26  23  20     1.556356036902   110.41914448    72.73606789
 H     29  26  23     1.154456943714   114.82934322   313.57149847
 H     29  26  23     1.069904892222   108.31445168   187.57559944
 H     29  26  23     1.089720631584   108.77285779    73.24352895
 H      2   1   3     1.094171635576   124.61702703   183.28850946
 H     18  17   5     1.073071920982   120.23659604   179.91891262

---------------------------
INTERNAL COORDINATES (A.U.)
---------------------------
 S      0   0   0     0.000000000000     0.00000000     0.00000000
 C      1   0   0     3.237197136380     0.00000000     0.00000000
 C      2   1   0     2.625299060016   111.54853320     0.00000000
 C      3   2   1     2.673870705077   112.12366051     6.19982086
 C      4   3   2     2.681478434637   113.17509358   358.72714476
 H      4   3   2     2.107550925127   124.45267903   180.24046352
 C      3   2   1     2.776855081311   131.73890123   185.54260001
 H      7   3   2     2.138917918926   101.23918784   298.11148251
 H      7   3   2     2.061395597709   109.90960337   183.60007467
 C      7   3   2     2.774851457831   120.41837224    53.87443077
 H     10   7   3     2.028460106115   115.52200786   213.45606613
 H     10   7   3     2.057216826560   109.93107663   328.47981896
 C     10   7   3     2.863941920598   113.86469370    74.43893698
 H     13  10   7     1.965461271119   113.53147636   290.18837439
 H     13  10   7     2.021705959088   111.74244144    50.57173568
 H     13  10   7     2.091817711511   105.62744825   175.80680745
 S      5   4   3     5.266380081681   142.81789084   225.30486603
 C     17   5   4     3.396725594853   119.64514672   288.07395464
 C     18  17   5     2.585300971215   109.50365672     3.66602736
 C     19  18  17     2.759808016457   112.73358634   359.61606926
 C     20  19  18     2.618476256057   115.14585861   355.12287850
 H     19  18  17     2.093959030705   120.65320230   170.45313335
 C     20  19  18     2.925078470255   116.74970294   181.46319389
 H     23  20  19     2.108601342095   115.96893025   312.68707731
 H     23  20  19     2.012773841185   110.59145773   197.48743204
 C     23  20  19     2.904057043349   111.82555547    77.08504389
 H     26  23  20     2.064790212501   113.41652545   309.92894597
 H     26  23  20     2.003120594594   103.59292147   193.07538012
 C     26  23  20     2.941086676619   110.41914448    72.73606789
 H     29  26  23     2.181607457023   114.82934322   313.57149847
 H     29  26  23     2.021827235642   108.31445168   187.57559944
 H     29  26  23     2.059273556178   108.77285779    73.24352895
 H      2   1   3     2.067684734744   124.61702703   183.28850946
 H     18  17   5     2.027812052657   120.23659604   179.91891262

---------------------
BASIS SET INFORMATION
---------------------
There are 3 groups of distinct atoms

 Group   1 Type S   : 10s7p1d contracted to 4s3p1d pattern {5311/511/1}
 Group   2 Type C   : 7s4p1d contracted to 3s2p1d pattern {511/31/1}
 Group   3 Type H   : 4s1p contracted to 2s1p pattern {31/1}

Atom   0S    basis set group =>   1
Atom   1C    basis set group =>   2
Atom   2C    basis set group =>   2
Atom   3C    basis set group =>   2
Atom   4C    basis set group =>   2
Atom   5H    basis set group =>   3
Atom   6C    basis set group =>   2
Atom   7H    basis set group =>   3
Atom   8H    basis set group =>   3
Atom   9C    basis set group =>   2
Atom  10H    basis set group =>   3
Atom  11H    basis set group =>   3
Atom  12C    basis set group =>   2
Atom  13H    basis set group =>   3
Atom  14H    basis set group =>   3
Atom  15H    basis set group =>   3
Atom  16S    basis set group =>   1
Atom  17C    basis set group =>   2
Atom  18C    basis set group =>   2
Atom  19C    basis set group =>   2
Atom  20C    basis set group =>   2
Atom  21H    basis set group =>   3
Atom  22C    basis set group =>   2
Atom  23H    basis set group =>   3
Atom  24H    basis set group =>   3
Atom  25C    basis set group =>   2
Atom  26H    basis set group =>   3
Atom  27H    basis set group =>   3
Atom  28C    basis set group =>   2
Atom  29H    basis set group =>   3
Atom  30H    basis set group =>   3
Atom  31H    basis set group =>   3
Atom  32H    basis set group =>   3
Atom  33H    basis set group =>   3


           ************************************************************
           *        Program running with 24 parallel MPI-processes    *
           *              working on a common directory               *
           ************************************************************
------------------------------------------------------------------------------
                           ORCA GTO INTEGRAL CALCULATION
------------------------------------------------------------------------------

                         BASIS SET STATISTICS AND STARTUP INFO

 # of primitive gaussian shells          ...  294
 # of primitive gaussian functions       ...  534
 # of contracted shells                  ...  154
 # of contracted basis functions         ...  322
 Highest angular momentum                ...    2
 Maximum contraction depth               ...    5
 Integral package used                   ... LIBINT
 Integral threshhold            Thresh   ...  1.000e-10
 Primitive cut-off              TCut     ...  1.000e-11


------------------------------ INTEGRAL EVALUATION ----------------------------


 * One electron integrals 
 Pre-screening matrix                    ... done
 Shell pair data                         ... done (   0.003 sec)



           ************************************************************
           *        Program running with 24 parallel MPI-processes    *
           *              working on a common directory               *
           ************************************************************
-------------------------------------------------------------------------------
                                 ORCA SCF
-------------------------------------------------------------------------------

------------
SCF SETTINGS
------------
Hamiltonian:
 Density Functional     Method          .... DFT(GTOs)
 Exchange Functional    Exchange        .... WB97X-D3
 Correlation Functional Correlation     .... WB97X-D3
 Gradients option       PostSCFGGA      .... off
 Hybrid DFT is turned on
   Fraction HF Exchange ScalHFX         ....  0.195728
   Scaling of DF-GGA-X  ScalDFX         ....  0.000000
   Scaling of DF-GGA-C  ScalDFC         ....  1.000000
   Scaling of DF-LDA-C  ScalLDAC        ....  1.000000
   Perturbative correction              ....  0.000000
   Density functional embedding theory  .... OFF
 Long-range corrected/Screened/Range-Separated Hybrid DFT is turned on
   Amount of maximum screened exact exchange              ....  0.804272
   Range separation parameter mu (erf(mu*r12)/r12)        ....  0.250000


General Settings:
 Integral files         IntName         .... config_1984
 Hartree-Fock type      HFTyp           .... RHF
 Total Charge           Charge          ....    0
 Multiplicity           Mult            ....    1
 Number of Electrons    NEL             ....  134
 Basis Dimension        Dim             ....  322
 Nuclear Repulsion      ENuc            ....   1304.4594214884 Eh

Convergence Acceleration:
 DIIS                   CNVDIIS         .... on
   Start iteration      DIISMaxIt       ....    12
   Startup error        DIISStart       ....  0.200000
   # of expansion vecs  DIISMaxEq       ....     5
   Bias factor          DIISBfac        ....   1.050
   Max. coefficient     DIISMaxC        ....  10.000
 Newton-Raphson         CNVNR           .... off
 SOSCF                  CNVSOSCF        .... on
   Start iteration      SOSCFMaxIt      ....   150
   Startup grad/error   SOSCFStart      ....  0.003300
 Level Shifting         CNVShift        .... on
   Level shift para.    LevelShift      ....    0.2500
   Turn off err/grad.   ShiftErr        ....    0.0010
 Zerner damping         CNVZerner       .... off
 Static damping         CNVDamp         .... on
   Fraction old density DampFac         ....    0.7000
   Max. Damping (<1)    DampMax         ....    0.9800
   Min. Damping (>=0)   DampMin         ....    0.0000
   Turn off err/grad.   DampErr         ....    0.1000
 Fernandez-Rico         CNVRico         .... off

SCF Procedure:
 Maximum # iterations   MaxIter         ....   125
 SCF integral mode      SCFMode         .... Direct
   Integral package                     .... LIBINT
 Reset frequency        DirectResetFreq ....    20
 Integral Threshold     Thresh          ....  1.000e-10 Eh
 Primitive CutOff       TCut            ....  1.000e-11 Eh

Convergence Tolerance:
 Convergence Check Mode ConvCheckMode   .... Total+1el-Energy
 Convergence forced     ConvForced      .... 0
 Energy Change          TolE            ....  1.000e-06 Eh
 1-El. energy change                    ....  1.000e-03 Eh
 Orbital Gradient       TolG            ....  5.000e-05
 Orbital Rotation angle TolX            ....  5.000e-05
 DIIS Error             TolErr          ....  1.000e-06


Diagonalization of the overlap matrix:
Smallest eigenvalue                        ... 6.152e-04
Time for diagonalization                   ...    0.015 sec
Threshold for overlap eigenvalues          ... 1.000e-08
Number of eigenvalues below threshold      ... 0
Time for construction of square roots      ...    0.026 sec
Total time needed                          ...    0.041 sec

-------------------
DFT GRID GENERATION
-------------------

General Integration Accuracy     IntAcc      ...  4.340
Radial Grid Type                 RadialGrid  ... Gauss-Chebyshev
Angular Grid (max. acc.)         AngularGrid ... Lebedev-110
Angular grid pruning method      GridPruning ... 3 (G Style)
Weight generation scheme         WeightScheme... Becke
Basis function cutoff            BFCut       ...    1.0000e-10
Integration weight cutoff        WCut        ...    1.0000e-14
Grids for H and He will be reduced by one unit

# of grid points (after initial pruning)     ...  41088 (   0.0 sec)
# of grid points (after weights+screening)   ...  36857 (   0.0 sec)
nearest neighbour list constructed           ...    0.0 sec
Grid point re-assignment to atoms done       ...    0.0 sec
Grid point division into batches done        ...    0.0 sec
Reduced shell lists constructed in    0.1 sec

Total number of grid points                  ...    36857
Total number of batches                      ...      592
Average number of points per batch           ...       62
Average number of grid points per atom       ...     1084
Average number of shells per batch           ...    73.85 (47.95%)
Average number of basis functions per batch  ...   143.92 (44.70%)
Average number of large shells per batch     ...    48.00 (65.00%)
Average number of large basis fcns per batch ...    97.77 (67.93%)
Maximum spatial batch extension              ...  12.17, 15.55, 15.47 au
Average spatial batch extension              ...   0.14,  0.17,  0.15 au

Time for grid setup =    0.148 sec

------------------------------
INITIAL GUESS: MODEL POTENTIAL
------------------------------
Loading Hartree-Fock densities                     ... done
Calculating cut-offs                               ... done
Setting up the integral package                    ... done
Initializing the effective Hamiltonian             ... done
Starting the Coulomb interaction                   ... done (   0.0 sec)
Reading the grid                                   ... done
Mapping shells                                     ... done
Starting the XC term evaluation                    ... done (   0.0 sec)
  promolecular density results
     # of electrons  =    133.978973358
     EX              =   -126.742828199
     EC              =     -4.627632572
     EX+EC           =   -131.370460771
Transforming the Hamiltonian                       ... done (   0.0 sec)
Diagonalizing the Hamiltonian                      ... done (   0.0 sec)
Back transforming the eigenvectors                 ... done (   0.0 sec)
Now organizing SCF variables                       ... done
                      ------------------
                      INITIAL GUESS DONE (   0.3 sec)
                      ------------------
--------------
SCF ITERATIONS
--------------
ITER       Energy         Delta-E        Max-DP      RMS-DP      [F,P]     Damp
               ***  Starting incremental Fock matrix formation  ***
  0  -1339.4136121741   0.000000000000 0.06809783  0.00158983  0.1681805 0.7000
  1  -1339.6040684654  -0.190456291309 0.04556353  0.00115421  0.1012632 0.7000
                               ***Turning on DIIS***
  2  -1339.6956057823  -0.091537316865 0.07909001  0.00216604  0.0522652 0.0000
  3  -1339.8338799423  -0.138274159993 0.04191681  0.00097021  0.0408510 0.0000
  4  -1339.8638671403  -0.029987198062 0.00749227  0.00019995  0.0076237 0.0000
                      *** Initiating the SOSCF procedure ***
                           *** Shutting down DIIS ***
                      *** Re-Reading the Fockian *** 
                      *** Removing any level shift *** 
ITER      Energy       Delta-E        Grad      Rot      Max-DP    RMS-DP
  5  -1339.86479627  -0.0009291262  0.001643  0.001643  0.003174  0.000100
               *** Restarting incremental Fock matrix formation ***
  6  -1339.86498584  -0.0001895725  0.001502  0.004252  0.002449  0.000065
  7  -1339.86505296  -0.0000671173  0.000783  0.005115  0.002593  0.000066
  8  -1339.86507095  -0.0000179898  0.000426  0.000856  0.000782  0.000020
  9  -1339.86507568  -0.0000047298  0.000145  0.000395  0.000324  0.000009
 10  -1339.86507615  -0.0000004729  0.000070  0.000219  0.000174  0.000004
                  ***Gradient check signals convergence***
              ***Rediagonalizing the Fockian in SOSCF/NRSCF***

               *****************************************************
               *                     SUCCESS                       *
               *           SCF CONVERGED AFTER  11 CYCLES          *
               *****************************************************

Setting up the final grid:

General Integration Accuracy     IntAcc      ...  4.670
Radial Grid Type                 RadialGrid  ... Gauss-Chebyshev
Angular Grid (max. acc.)         AngularGrid ... Lebedev-302
Angular grid pruning method      GridPruning ... 3 (G Style)
Weight generation scheme         WeightScheme... Becke
Basis function cutoff            BFCut       ...    1.0000e-10
Integration weight cutoff        WCut        ...    1.0000e-14
Grids for H and He will be reduced by one unit

# of grid points (after initial pruning)     ... 161752 (   0.0 sec)
# of grid points (after weights+screening)   ... 142245 (   0.1 sec)
nearest neighbour list constructed           ...    0.0 sec
Grid point re-assignment to atoms done       ...    0.0 sec
Grid point division into batches done        ...    0.5 sec
Reduced shell lists constructed in    0.5 sec

Total number of grid points                  ...   142245
Total number of batches                      ...     2240
Average number of points per batch           ...       63
Average number of grid points per atom       ...     4184
Average number of shells per batch           ...    69.76 (45.30%)
Average number of basis functions per batch  ...   136.07 (42.26%)
Average number of large shells per batch     ...    43.21 (61.94%)
Average number of large basis fcns per batch ...    87.99 (64.66%)
Maximum spatial batch extension              ...  12.29, 13.76, 12.72 au
Average spatial batch extension              ...   0.10,  0.11,  0.10 au

Final grid set up in    0.9 sec
Final integration                            ... done (   0.2 sec)
Change in XC energy                          ...     0.007534771
Integrated number of electrons               ...   133.999601660
Previous integrated no of electrons          ...   133.994567274

----------------
TOTAL SCF ENERGY
----------------

Total Energy       :        -1339.85754166 Eh          -36459.37727 eV

Components:
Nuclear Repulsion  :         1304.45942149 Eh           35496.14545 eV
Electronic Energy  :        -2644.31696315 Eh          -71955.52272 eV
One Electron Energy:        -4425.51328202 Eh         -120424.33866 eV
Two Electron Energy:         1781.19631887 Eh           48468.81594 eV

Virial components:
Potential Energy   :        -2671.47469711 Eh          -72694.52223 eV
Kinetic Energy     :         1331.61715545 Eh           36235.14496 eV
Virial Ratio       :            2.00618825


DFT components:
N(Alpha)           :       66.999800829788 electrons
N(Beta)            :       66.999800829788 electrons
N(Total)           :      133.999601659576 electrons
E(XC)              :      -94.285334991679 Eh       
DFET-embed. en.    :        0.000000000000 Eh       

---------------
SCF CONVERGENCE
---------------

  Last Energy change         ...   -2.8313e-07  Tolerance :   1.0000e-06
  Last MAX-Density change    ...    2.9384e-05  Tolerance :   1.0000e-05
  Last RMS-Density change    ...    8.2664e-07  Tolerance :   1.0000e-06
  Last Orbital Gradient      ...    1.2053e-05  Tolerance :   5.0000e-05
  Last Orbital Rotation      ...    3.3821e-05  Tolerance :   5.0000e-05

             **** THE GBW FILE WAS UPDATED (config_1984.gbw) ****
             **** DENSITY FILE WAS UPDATED (config_1984.scfp) ****
             **** ENERGY FILE WAS UPDATED (config_1984.en.tmp) ****
             **** THE GBW FILE WAS UPDATED (config_1984.gbw) ****
             **** DENSITY FILE WAS UPDATED (config_1984.scfp) ****
----------------
ORBITAL ENERGIES
----------------

  NO   OCC          E(Eh)            E(eV) 
   0   2.0000     -88.972937     -2421.0767 
   1   2.0000     -88.961499     -2420.7655 
   2   2.0000     -10.331819      -281.1431 
   3   2.0000     -10.329407      -281.0775 
   4   2.0000     -10.320867      -280.8451 
   5   2.0000     -10.314936      -280.6837 
   6   2.0000     -10.305462      -280.4259 
   7   2.0000     -10.299668      -280.2682 
   8   2.0000     -10.299304      -280.2583 
   9   2.0000     -10.296922      -280.1935 
  10   2.0000     -10.289635      -279.9952 
  11   2.0000     -10.289247      -279.9846 
  12   2.0000     -10.280360      -279.7428 
  13   2.0000     -10.277604      -279.6678 
  14   2.0000     -10.272994      -279.5424 
  15   2.0000     -10.268353      -279.4161 
  16   2.0000      -8.088115      -220.0888 
  17   2.0000      -8.075934      -219.7573 
  18   2.0000      -6.046530      -164.5345 
  19   2.0000      -6.042375      -164.4214 
  20   2.0000      -6.039152      -164.3337 
  21   2.0000      -6.034643      -164.2110 
  22   2.0000      -6.030504      -164.0983 
  23   2.0000      -6.026473      -163.9887 
  24   2.0000      -1.010562       -27.4988 
  25   2.0000      -0.984002       -26.7760 
  26   2.0000      -0.927034       -25.2259 
  27   2.0000      -0.903220       -24.5779 
  28   2.0000      -0.873559       -23.7708 
  29   2.0000      -0.857987       -23.3470 
  30   2.0000      -0.835438       -22.7334 
  31   2.0000      -0.811209       -22.0741 
  32   2.0000      -0.785308       -21.3693 
  33   2.0000      -0.771652       -20.9977 
  34   2.0000      -0.711109       -19.3503 
  35   2.0000      -0.702012       -19.1027 
  36   2.0000      -0.691496       -18.8166 
  37   2.0000      -0.661219       -17.9927 
  38   2.0000      -0.638425       -17.3724 
  39   2.0000      -0.615316       -16.7436 
  40   2.0000      -0.599124       -16.3030 
  41   2.0000      -0.579261       -15.7625 
  42   2.0000      -0.562355       -15.3024 
  43   2.0000      -0.548709       -14.9311 
  44   2.0000      -0.545633       -14.8474 
  45   2.0000      -0.527995       -14.3675 
  46   2.0000      -0.520133       -14.1535 
  47   2.0000      -0.510951       -13.9037 
  48   2.0000      -0.503385       -13.6978 
  49   2.0000      -0.502613       -13.6768 
  50   2.0000      -0.492298       -13.3961 
  51   2.0000      -0.482573       -13.1315 
  52   2.0000      -0.470022       -12.7900 
  53   2.0000      -0.468359       -12.7447 
  54   2.0000      -0.459258       -12.4970 
  55   2.0000      -0.442864       -12.0509 
  56   2.0000      -0.440565       -11.9884 
  57   2.0000      -0.436861       -11.8876 
  58   2.0000      -0.430942       -11.7265 
  59   2.0000      -0.424837       -11.5604 
  60   2.0000      -0.416620       -11.3368 
  61   2.0000      -0.408790       -11.1237 
  62   2.0000      -0.405608       -11.0372 
  63   2.0000      -0.358617        -9.7585 
  64   2.0000      -0.331730        -9.0268 
  65   2.0000      -0.325967        -8.8700 
  66   2.0000      -0.284595        -7.7442 
  67   0.0000       0.021545         0.5863 
  68   0.0000       0.078160         2.1268 
  69   0.0000       0.103902         2.8273 
  70   0.0000       0.117839         3.2066 
  71   0.0000       0.138636         3.7725 
  72   0.0000       0.144085         3.9207 
  73   0.0000       0.150223         4.0878 
  74   0.0000       0.160013         4.3542 
  75   0.0000       0.167599         4.5606 
  76   0.0000       0.172603         4.6968 
  77   0.0000       0.175975         4.7885 
  78   0.0000       0.186050         5.0627 
  79   0.0000       0.191474         5.2103 
  80   0.0000       0.199207         5.4207 
  81   0.0000       0.205344         5.5877 
  82   0.0000       0.214383         5.8337 
  83   0.0000       0.221597         6.0300 
  84   0.0000       0.224571         6.1109 
  85   0.0000       0.231132         6.2894 
  86   0.0000       0.234172         6.3721 
  87   0.0000       0.240065         6.5325 
  88   0.0000       0.243873         6.6361 
  89   0.0000       0.255003         6.9390 
  90   0.0000       0.261908         7.1269 
  91   0.0000       0.263615         7.1733 
  92   0.0000       0.272883         7.4255 
  93   0.0000       0.302032         8.2187 
  94   0.0000       0.313090         8.5196 
  95   0.0000       0.320369         8.7177 
  96   0.0000       0.322334         8.7711 
  97   0.0000       0.345303         9.3962 
  98   0.0000       0.347442         9.4544 
  99   0.0000       0.365333         9.9412 
 100   0.0000       0.399878        10.8812 
 101   0.0000       0.413573        11.2539 
 102   0.0000       0.424095        11.5402 
 103   0.0000       0.425325        11.5737 
 104   0.0000       0.437739        11.9115 
 105   0.0000       0.448751        12.2111 
 106   0.0000       0.461039        12.5455 
 107   0.0000       0.469912        12.7870 
 108   0.0000       0.479066        13.0360 
 109   0.0000       0.484186        13.1754 
 110   0.0000       0.502185        13.6652 
 111   0.0000       0.515268        14.0212 
 112   0.0000       0.520152        14.1541 
 113   0.0000       0.526206        14.3188 
 114   0.0000       0.529454        14.4072 
 115   0.0000       0.539261        14.6740 
 116   0.0000       0.548804        14.9337 
 117   0.0000       0.560274        15.2458 
 118   0.0000       0.566067        15.4035 
 119   0.0000       0.568719        15.4756 
 120   0.0000       0.581022        15.8104 
 121   0.0000       0.594651        16.1813 
 122   0.0000       0.595434        16.2026 
 123   0.0000       0.614133        16.7114 
 124   0.0000       0.618038        16.8177 
 125   0.0000       0.621807        16.9202 
 126   0.0000       0.630559        17.1584 
 127   0.0000       0.650238        17.6939 
 128   0.0000       0.660616        17.9763 
 129   0.0000       0.680274        18.5112 
 130   0.0000       0.694323        18.8935 
 131   0.0000       0.694933        18.9101 
 132   0.0000       0.698554        19.0086 
 133   0.0000       0.704312        19.1653 
 134   0.0000       0.716674        19.5017 
 135   0.0000       0.719944        19.5907 
 136   0.0000       0.725822        19.7506 
 137   0.0000       0.734296        19.9812 
 138   0.0000       0.737889        20.0790 
 139   0.0000       0.741946        20.1894 
 140   0.0000       0.743776        20.2392 
 141   0.0000       0.746140        20.3035 
 142   0.0000       0.751246        20.4424 
 143   0.0000       0.755621        20.5615 
 144   0.0000       0.762922        20.7602 
 145   0.0000       0.770137        20.9565 
 146   0.0000       0.774731        21.0815 
 147   0.0000       0.779222        21.2037 
 148   0.0000       0.782407        21.2904 
 149   0.0000       0.790100        21.4997 
 150   0.0000       0.791383        21.5346 
 151   0.0000       0.794675        21.6242 
 152   0.0000       0.799789        21.7634 
 153   0.0000       0.805299        21.9133 
 154   0.0000       0.807327        21.9685 
 155   0.0000       0.811111        22.0714 
 156   0.0000       0.815320        22.1860 
 157   0.0000       0.816900        22.2290 
 158   0.0000       0.828105        22.5339 
 159   0.0000       0.829026        22.5589 
 160   0.0000       0.833504        22.6808 
 161   0.0000       0.836762        22.7695 
 162   0.0000       0.840577        22.8732 
 163   0.0000       0.846197        23.0262 
 164   0.0000       0.852358        23.1938 
 165   0.0000       0.871856        23.7244 
 166   0.0000       0.874184        23.7878 
 167   0.0000       0.880604        23.9625 
 168   0.0000       0.886218        24.1152 
 169   0.0000       0.896106        24.3843 
 170   0.0000       0.908598        24.7242 
 171   0.0000       0.922146        25.0929 
 172   0.0000       0.937625        25.5141 
 173   0.0000       0.939828        25.5740 
 174   0.0000       0.962775        26.1985 
 175   0.0000       0.978363        26.6226 
 176   0.0000       0.992298        27.0018 
 177   0.0000       0.996981        27.1292 
 178   0.0000       1.011811        27.5328 
 179   0.0000       1.039447        28.2848 
 180   0.0000       1.066550        29.0223 
 181   0.0000       1.073968        29.2242 
 182   0.0000       1.087784        29.6001 
 183   0.0000       1.122890        30.5554 
 184   0.0000       1.131482        30.7892 
 185   0.0000       1.142483        31.0885 
 186   0.0000       1.153337        31.3839 
 187   0.0000       1.173616        31.9357 
 188   0.0000       1.205798        32.8114 
 189   0.0000       1.217282        33.1239 
 190   0.0000       1.238497        33.7012 
 191   0.0000       1.244573        33.8665 
 192   0.0000       1.255340        34.1596 
 193   0.0000       1.286428        35.0055 
 194   0.0000       1.299550        35.3626 
 195   0.0000       1.311515        35.6881 
 196   0.0000       1.327115        36.1126 
 197   0.0000       1.332579        36.2613 
 198   0.0000       1.339634        36.4533 
 199   0.0000       1.350676        36.7538 
 200   0.0000       1.373222        37.3673 
 201   0.0000       1.385878        37.7117 
 202   0.0000       1.411241        38.4018 
 203   0.0000       1.427014        38.8310 
 204   0.0000       1.465732        39.8846 
 205   0.0000       1.467292        39.9270 
 206   0.0000       1.503283        40.9064 
 207   0.0000       1.523243        41.4496 
 208   0.0000       1.531767        41.6815 
 209   0.0000       1.553592        42.2754 
 210   0.0000       1.570544        42.7367 
 211   0.0000       1.599848        43.5341 
 212   0.0000       1.630592        44.3707 
 213   0.0000       1.643550        44.7233 
 214   0.0000       1.653766        45.0013 
 215   0.0000       1.663087        45.2549 
 216   0.0000       1.700280        46.2670 
 217   0.0000       1.730843        47.0986 
 218   0.0000       1.733122        47.1606 
 219   0.0000       1.761159        47.9236 
 220   0.0000       1.771636        48.2087 
 221   0.0000       1.791098        48.7383 
 222   0.0000       1.805570        49.1320 
 223   0.0000       1.809714        49.2448 
 224   0.0000       1.817694        49.4620 
 225   0.0000       1.822569        49.5946 
 226   0.0000       1.843156        50.1548 
 227   0.0000       1.847268        50.2667 
 228   0.0000       1.855894        50.5014 
 229   0.0000       1.866671        50.7947 
 230   0.0000       1.872038        50.9407 
 231   0.0000       1.881695        51.2035 
 232   0.0000       1.888003        51.3752 
 233   0.0000       1.899599        51.6907 
 234   0.0000       1.905093        51.8402 
 235   0.0000       1.918870        52.2151 
 236   0.0000       1.923329        52.3364 
 237   0.0000       1.936386        52.6918 
 238   0.0000       1.945764        52.9469 
 239   0.0000       1.954017        53.1715 
 240   0.0000       1.957597        53.2689 
 241   0.0000       1.967660        53.5428 
 242   0.0000       1.971352        53.6432 
 243   0.0000       1.971878        53.6575 
 244   0.0000       1.990239        54.1571 
 245   0.0000       1.991738        54.1980 
 246   0.0000       2.006810        54.6081 
 247   0.0000       2.009506        54.6814 
 248   0.0000       2.017235        54.8917 
 249   0.0000       2.023156        55.0529 
 250   0.0000       2.051149        55.8146 
 251   0.0000       2.061297        56.0908 
 252   0.0000       2.084818        56.7308 
 253   0.0000       2.091878        56.9229 
 254   0.0000       2.105269        57.2873 
 255   0.0000       2.114385        57.5353 
 256   0.0000       2.120571        57.7037 
 257   0.0000       2.124120        57.8002 
 258   0.0000       2.141630        58.2767 
 259   0.0000       2.152903        58.5835 
 260   0.0000       2.156678        58.6862 
 261   0.0000       2.181271        59.3554 
 262   0.0000       2.185594        59.4730 
 263   0.0000       2.207386        60.0660 
 264   0.0000       2.229568        60.6696 
 265   0.0000       2.251340        61.2621 
 266   0.0000       2.255353        61.3713 
 267   0.0000       2.276426        61.9447 
 268   0.0000       2.277039        61.9614 
 269   0.0000       2.311612        62.9022 
 270   0.0000       2.342862        63.7525 
 271   0.0000       2.360817        64.2411 
 272   0.0000       2.362549        64.2882 
 273   0.0000       2.399864        65.3036 
 274   0.0000       2.413065        65.6628 
 275   0.0000       2.419758        65.8450 
 276   0.0000       2.424048        65.9617 
 277   0.0000       2.451142        66.6990 
 278   0.0000       2.460562        66.9553 
 279   0.0000       2.474050        67.3223 
 280   0.0000       2.487026        67.6754 
 281   0.0000       2.502569        68.0984 
 282   0.0000       2.517202        68.4965 
 283   0.0000       2.521260        68.6070 
 284   0.0000       2.533491        68.9398 
 285   0.0000       2.550945        69.4147 
 286   0.0000       2.564519        69.7841 
 287   0.0000       2.580235        70.2118 
 288   0.0000       2.618846        71.2624 
 289   0.0000       2.630685        71.5846 
 290   0.0000       2.662796        72.4584 
 291   0.0000       2.670709        72.6737 
 292   0.0000       2.706470        73.6468 
 293   0.0000       2.721540        74.0569 
 294   0.0000       2.726562        74.1935 
 295   0.0000       2.758538        75.0636 
 296   0.0000       2.773028        75.4579 
 297   0.0000       2.775540        75.5263 
 298   0.0000       2.785610        75.8003 
 299   0.0000       2.801398        76.2299 
 300   0.0000       2.821390        76.7739 
 301   0.0000       2.868821        78.0646 
 302   0.0000       2.908802        79.1525 
 303   0.0000       2.929292        79.7101 
 304   0.0000       2.952567        80.3434 
 305   0.0000       2.984525        81.2131 
 306   0.0000       3.003792        81.7373 
 307   0.0000       3.022155        82.2370 
 308   0.0000       3.037609        82.6575 
 309   0.0000       3.042420        82.7884 
 310   0.0000       3.046651        82.9036 
 311   0.0000       3.069769        83.5326 
 312   0.0000       3.089889        84.0802 
 313   0.0000       3.142071        85.5001 
 314   0.0000       3.149180        85.6935 
 315   0.0000       3.175674        86.4145 
 316   0.0000       3.185905        86.6929 
 317   0.0000       3.242872        88.2430 
 318   0.0000       3.258112        88.6577 
 319   0.0000       3.274654        89.1079 
 320   0.0000       3.368533        91.6624 
 321   0.0000       3.425365        93.2089 

                    ********************************
                    * MULLIKEN POPULATION ANALYSIS *
                    ********************************

-----------------------
MULLIKEN ATOMIC CHARGES
-----------------------
   0 S :    0.133817
   1 C :   -0.131924
   2 C :   -0.074904
   3 C :   -0.023408
   4 C :   -0.158308
   5 H :    0.042386
   6 C :    0.066180
   7 H :    0.042461
   8 H :    0.018870
   9 C :   -0.057625
  10 H :    0.024738
  11 H :    0.011764
  12 C :   -0.025512
  13 H :    0.024578
  14 H :    0.016483
  15 H :    0.033191
  16 S :    0.074921
  17 C :   -0.097208
  18 C :   -0.013969
  19 C :   -0.078031
  20 C :   -0.103837
  21 H :    0.039690
  22 C :    0.059385
  23 H :    0.028662
  24 H :   -0.013002
  25 C :   -0.046078
  26 H :    0.029989
  27 H :    0.015373
  28 C :   -0.064020
  29 H :    0.065230
  30 H :    0.025790
  31 H :    0.022049
  32 H :    0.052123
  33 H :    0.060147
Sum of atomic charges:   -0.0000000

--------------------------------
MULLIKEN REDUCED ORBITAL CHARGES
--------------------------------
  0 S s       :     5.837281  s :     5.837281
      pz      :     3.231412  p :     9.910960
      px      :     3.217459
      py      :     3.462090
      dz2     :     0.028507  d :     0.117943
      dxz     :     0.016841
      dyz     :     0.025444
      dx2y2   :     0.026528
      dxy     :     0.020621
  1 C s       :     3.181670  s :     3.181670
      pz      :     0.994081  p :     2.916079
      px      :     0.848056
      py      :     1.073941
      dz2     :     0.007274  d :     0.034175
      dxz     :     0.008426
      dyz     :     0.004869
      dx2y2   :     0.007744
      dxy     :     0.005862
  2 C s       :     3.075761  s :     3.075761
      pz      :     0.983177  p :     2.953306
      px      :     0.991857
      py      :     0.978272
      dz2     :     0.008927  d :     0.045837
      dxz     :     0.013421
      dyz     :     0.006124
      dx2y2   :     0.008044
      dxy     :     0.009321
  3 C s       :     3.199083  s :     3.199083
      pz      :     0.896463  p :     2.791018
      px      :     0.910049
      py      :     0.984507
      dz2     :     0.006605  d :     0.033307
      dxz     :     0.008565
      dyz     :     0.004673
      dx2y2   :     0.006226
      dxy     :     0.007239
  4 C s       :     3.072704  s :     3.072704
      pz      :     1.011842  p :     3.041621
      px      :     1.010929
      py      :     1.018849
      dz2     :     0.010166  d :     0.043983
      dxz     :     0.010311
      dyz     :     0.007179
      dx2y2   :     0.009836
      dxy     :     0.006491
  5 H s       :     0.934965  s :     0.934965
      pz      :     0.011078  p :     0.022649
      px      :     0.003610
      py      :     0.007961
  6 C s       :     2.961795  s :     2.961795
      pz      :     0.982393  p :     2.933125
      px      :     0.925079
      py      :     1.025652
      dz2     :     0.006136  d :     0.038900
      dxz     :     0.004686
      dyz     :     0.009761
      dx2y2   :     0.009321
      dxy     :     0.008996
  7 H s       :     0.935029  s :     0.935029
      pz      :     0.010219  p :     0.022510
      px      :     0.004910
      py      :     0.007381
  8 H s       :     0.958245  s :     0.958245
      pz      :     0.011029  p :     0.022884
      px      :     0.003906
      py      :     0.007949
  9 C s       :     3.003626  s :     3.003626
      pz      :     1.031837  p :     3.013952
      px      :     1.010139
      py      :     0.971977
      dz2     :     0.005866  d :     0.040047
      dxz     :     0.006344
      dyz     :     0.011852
      dx2y2   :     0.007169
      dxy     :     0.008817
 10 H s       :     0.951526  s :     0.951526
      pz      :     0.006170  p :     0.023736
      px      :     0.012051
      py      :     0.005514
 11 H s       :     0.963174  s :     0.963174
      pz      :     0.009272  p :     0.025062
      px      :     0.005222
      py      :     0.010568
 12 C s       :     2.983143  s :     2.983143
      pz      :     0.979602  p :     3.011923
      px      :     1.029756
      py      :     1.002565
      dz2     :     0.009143  d :     0.030446
      dxz     :     0.002158
      dyz     :     0.008298
      dx2y2   :     0.001677
      dxy     :     0.009170
 13 H s       :     0.948721  s :     0.948721
      pz      :     0.005073  p :     0.026701
      px      :     0.011711
      py      :     0.009917
 14 H s       :     0.958896  s :     0.958896
      pz      :     0.011328  p :     0.024621
      px      :     0.005286
      py      :     0.008007
 15 H s       :     0.943646  s :     0.943646
      pz      :     0.004376  p :     0.023163
      px      :     0.011234
      py      :     0.007553
 16 S s       :     5.850552  s :     5.850552
      pz      :     3.411670  p :     9.973340
      px      :     3.232474
      py      :     3.329196
      dz2     :     0.019065  d :     0.101187
      dxz     :     0.014457
      dyz     :     0.020992
      dx2y2   :     0.015296
      dxy     :     0.031376
 17 C s       :     3.180310  s :     3.180310
      pz      :     0.983632  p :     2.883181
      px      :     0.960280
      py      :     0.939269
      dz2     :     0.004399  d :     0.033718
      dxz     :     0.004941
      dyz     :     0.008318
      dx2y2   :     0.006123
      dxy     :     0.009938
 18 C s       :     3.175600  s :     3.175600
      pz      :     0.950855  p :     2.804375
      px      :     0.957639
      py      :     0.895880
      dz2     :     0.004900  d :     0.033995
      dxz     :     0.005564
      dyz     :     0.007351
      dx2y2   :     0.008947
      dxy     :     0.007232
 19 C s       :     3.082852  s :     3.082852
      pz      :     0.987046  p :     2.954463
      px      :     0.980403
      py      :     0.987014
      dz2     :     0.007438  d :     0.040716
      dxz     :     0.006078
      dyz     :     0.008269
      dx2y2   :     0.009996
      dxy     :     0.008935
 20 C s       :     3.035971  s :     3.035971
      pz      :     1.044201  p :     3.023647
      px      :     1.018462
      py      :     0.960984
      dz2     :     0.008404  d :     0.044219
      dxz     :     0.006942
      dyz     :     0.009185
      dx2y2   :     0.007440
      dxy     :     0.012248
 21 H s       :     0.937814  s :     0.937814
      pz      :     0.009900  p :     0.022496
      px      :     0.004538
      py      :     0.008057
 22 C s       :     2.964151  s :     2.964151
      pz      :     1.000454  p :     2.941388
      px      :     1.003670
      py      :     0.937264
      dz2     :     0.007553  d :     0.035076
      dxz     :     0.004624
      dyz     :     0.006519
      dx2y2   :     0.009882
      dxy     :     0.006499
 23 H s       :     0.949267  s :     0.949267
      pz      :     0.012448  p :     0.022070
      px      :     0.005038
      py      :     0.004585
 24 H s       :     0.988146  s :     0.988146
      pz      :     0.006853  p :     0.024856
      px      :     0.013474
      py      :     0.004529
 25 C s       :     3.033770  s :     3.033770
      pz      :     0.977943  p :     2.975863
      px      :     1.011764
      py      :     0.986157
      dz2     :     0.009688  d :     0.036445
      dxz     :     0.006117
      dyz     :     0.007213
      dx2y2   :     0.007909
      dxy     :     0.005517
 26 H s       :     0.947771  s :     0.947771
      pz      :     0.004100  p :     0.022240
      px      :     0.013956
      py      :     0.004183
 27 H s       :     0.960360  s :     0.960360
      pz      :     0.004962  p :     0.024267
      px      :     0.006880
      py      :     0.012425
 28 C s       :     3.036911  s :     3.036911
      pz      :     0.961050  p :     3.000161
      px      :     1.019344
      py      :     1.019767
      dz2     :     0.006426  d :     0.026949
      dxz     :     0.005307
      dyz     :     0.005807
      dx2y2   :     0.005560
      dxy     :     0.003849
 29 H s       :     0.913312  s :     0.913312
      pz      :     0.003710  p :     0.021457
      px      :     0.004396
      py      :     0.013351
 30 H s       :     0.949481  s :     0.949481
      pz      :     0.006997  p :     0.024729
      px      :     0.009163
      py      :     0.008569
 31 H s       :     0.954007  s :     0.954007
      pz      :     0.004925  p :     0.023944
      px      :     0.013424
      py      :     0.005595
 32 H s       :     0.924367  s :     0.924367
      pz      :     0.011858  p :     0.023510
      px      :     0.005407
      py      :     0.006245
 33 H s       :     0.915713  s :     0.915713
      pz      :     0.007078  p :     0.024139
      px      :     0.011600
      py      :     0.005462


                     *******************************
                     * LOEWDIN POPULATION ANALYSIS *
                     *******************************

----------------------
LOEWDIN ATOMIC CHARGES
----------------------
   0 S :    0.447242
   1 C :   -0.219639
   2 C :   -0.063769
   3 C :   -0.065297
   4 C :   -0.206364
   5 H :    0.037104
   6 C :   -0.038673
   7 H :    0.047928
   8 H :    0.028131
   9 C :   -0.050043
  10 H :    0.022610
  11 H :    0.028882
  12 C :   -0.053844
  13 H :    0.018406
  14 H :    0.015089
  15 H :    0.033100
  16 S :    0.372804
  17 C :   -0.163606
  18 C :   -0.069601
  19 C :   -0.057377
  20 C :   -0.199873
  21 H :    0.040737
  22 C :   -0.033068
  23 H :    0.032671
  24 H :    0.017093
  25 C :   -0.032324
  26 H :    0.021855
  27 H :    0.017535
  28 C :   -0.068085
  29 H :    0.040310
  30 H :    0.019175
  31 H :    0.021422
  32 H :    0.031979
  33 H :    0.027490

-------------------------------
LOEWDIN REDUCED ORBITAL CHARGES
-------------------------------
  0 S s       :     5.477145  s :     5.477145
      pz      :     3.234752  p :     9.928380
      px      :     3.236412
      py      :     3.457216
      dz2     :     0.035995  d :     0.147234
      dxz     :     0.020944
      dyz     :     0.033372
      dx2y2   :     0.033121
      dxy     :     0.023801
  1 C s       :     2.923830  s :     2.923830
      pz      :     1.088441  p :     3.213738
      px      :     1.011922
      py      :     1.113375
      dz2     :     0.017163  d :     0.082072
      dxz     :     0.021246
      dyz     :     0.011750
      dx2y2   :     0.017589
      dxy     :     0.014324
  2 C s       :     2.851887  s :     2.851887
      pz      :     1.043211  p :     3.096661
      px      :     1.050943
      py      :     1.002507
      dz2     :     0.021816  d :     0.115221
      dxz     :     0.035985
      dyz     :     0.015390
      dx2y2   :     0.019823
      dxy     :     0.022207
  3 C s       :     2.878070  s :     2.878070
      pz      :     1.034517  p :     3.099904
      px      :     1.028786
      py      :     1.036601
      dz2     :     0.016753  d :     0.087323
      dxz     :     0.024331
      dyz     :     0.010788
      dx2y2   :     0.016683
      dxy     :     0.018768
  4 C s       :     2.908449  s :     2.908449
      pz      :     1.046348  p :     3.192840
      px      :     1.088739
      py      :     1.057753
      dz2     :     0.023511  d :     0.105075
      dxz     :     0.025788
      dyz     :     0.016192
      dx2y2   :     0.024353
      dxy     :     0.015232
  5 H s       :     0.896594  s :     0.896594
      pz      :     0.031930  p :     0.066302
      px      :     0.011541
      py      :     0.022830
  6 C s       :     2.814473  s :     2.814473
      pz      :     1.046103  p :     3.124467
      px      :     1.023743
      py      :     1.054622
      dz2     :     0.017019  d :     0.099733
      dxz     :     0.010098
      dyz     :     0.025440
      dx2y2   :     0.022980
      dxy     :     0.024196
  7 H s       :     0.889726  s :     0.889726
      pz      :     0.028131  p :     0.062346
      px      :     0.013669
      py      :     0.020547
  8 H s       :     0.905529  s :     0.905529
      pz      :     0.030887  p :     0.066340
      px      :     0.011986
      py      :     0.023467
  9 C s       :     2.812101  s :     2.812101
      pz      :     1.054373  p :     3.139190
      px      :     1.050168
      py      :     1.034649
      dz2     :     0.014581  d :     0.098752
      dxz     :     0.014223
      dyz     :     0.028974
      dx2y2   :     0.017542
      dxy     :     0.023431
 10 H s       :     0.907158  s :     0.907158
      pz      :     0.019899  p :     0.070232
      px      :     0.033923
      py      :     0.016411
 11 H s       :     0.900469  s :     0.900469
      pz      :     0.026174  p :     0.070649
      px      :     0.014806
      py      :     0.029669
 12 C s       :     2.814701  s :     2.814701
      pz      :     1.033052  p :     3.161511
      px      :     1.075575
      py      :     1.052884
      dz2     :     0.021887  d :     0.077631
      dxz     :     0.004321
      dyz     :     0.023550
      dx2y2   :     0.004280
      dxy     :     0.023594
 13 H s       :     0.905333  s :     0.905333
      pz      :     0.016341  p :     0.076261
      px      :     0.032267
      py      :     0.027652
 14 H s       :     0.915007  s :     0.915007
      pz      :     0.033428  p :     0.069904
      px      :     0.014268
      py      :     0.022208
 15 H s       :     0.903411  s :     0.903411
      pz      :     0.012812  p :     0.063490
      px      :     0.029652
      py      :     0.021026
 16 S s       :     5.520889  s :     5.520889
      pz      :     3.394476  p :     9.982617
      px      :     3.222807
      py      :     3.365334
      dz2     :     0.023085  d :     0.123689
      dxz     :     0.018818
      dyz     :     0.024729
      dx2y2   :     0.017338
      dxy     :     0.039719
 17 C s       :     2.936584  s :     2.936584
      pz      :     1.036828  p :     3.147954
      px      :     1.049243
      py      :     1.061883
      dz2     :     0.010174  d :     0.079068
      dxz     :     0.009827
      dyz     :     0.018870
      dx2y2   :     0.015010
      dxy     :     0.025186
 18 C s       :     2.878986  s :     2.878986
      pz      :     1.017613  p :     3.102682
      px      :     1.024057
      py      :     1.061013
      dz2     :     0.011772  d :     0.087932
      dxz     :     0.014012
      dyz     :     0.018313
      dx2y2   :     0.024602
      dxy     :     0.019234
 19 C s       :     2.869489  s :     2.869489
      pz      :     1.023452  p :     3.086394
      px      :     1.023821
      py      :     1.039121
      dz2     :     0.016639  d :     0.101494
      dxz     :     0.015611
      dyz     :     0.021402
      dx2y2   :     0.026234
      dxy     :     0.021608
 20 C s       :     2.900514  s :     2.900514
      pz      :     1.084485  p :     3.191783
      px      :     1.051108
      py      :     1.056190
      dz2     :     0.018989  d :     0.107576
      dxz     :     0.017037
      dyz     :     0.023519
      dx2y2   :     0.019164
      dxy     :     0.028868
 21 H s       :     0.893578  s :     0.893578
      pz      :     0.028515  p :     0.065685
      px      :     0.014158
      py      :     0.023012
 22 C s       :     2.830881  s :     2.830881
      pz      :     1.055442  p :     3.115434
      px      :     1.055190
      py      :     1.004802
      dz2     :     0.019067  d :     0.086752
      dxz     :     0.011328
      dyz     :     0.016083
      dx2y2   :     0.022680
      dxy     :     0.017594
 23 H s       :     0.904020  s :     0.904020
      pz      :     0.034644  p :     0.063309
      px      :     0.013710
      py      :     0.014955
 24 H s       :     0.908614  s :     0.908614
      pz      :     0.019617  p :     0.074292
      px      :     0.039501
      py      :     0.015174
 25 C s       :     2.831627  s :     2.831627
      pz      :     1.017360  p :     3.112569
      px      :     1.054290
      py      :     1.040919
      dz2     :     0.024322  d :     0.088127
      dxz     :     0.012964
      dyz     :     0.017052
      dx2y2   :     0.019903
      dxy     :     0.013886
 26 H s       :     0.911889  s :     0.911889
      pz      :     0.014243  p :     0.066255
      px      :     0.039280
      py      :     0.012732
 27 H s       :     0.909274  s :     0.909274
      pz      :     0.017445  p :     0.073190
      px      :     0.019615
      py      :     0.036131
 28 C s       :     2.846419  s :     2.846419
      pz      :     1.018073  p :     3.153704
      px      :     1.075913
      py      :     1.059718
      dz2     :     0.018283  d :     0.067962
      dxz     :     0.011940
      dyz     :     0.013245
      dx2y2   :     0.014898
      dxy     :     0.009596
 29 H s       :     0.901630  s :     0.901630
      pz      :     0.011761  p :     0.058061
      px      :     0.010346
      py      :     0.035954
 30 H s       :     0.910080  s :     0.910080
      pz      :     0.021706  p :     0.070744
      px      :     0.024317
      py      :     0.024721
 31 H s       :     0.911526  s :     0.911526
      pz      :     0.015488  p :     0.067052
      px      :     0.036589
      py      :     0.014975
 32 H s       :     0.894544  s :     0.894544
      pz      :     0.034599  p :     0.073477
      px      :     0.019387
      py      :     0.019491
 33 H s       :     0.896341  s :     0.896341
      pz      :     0.023718  p :     0.076169
      px      :     0.035510
      py      :     0.016941


                      *****************************
                      * MAYER POPULATION ANALYSIS *
                      *****************************

  NA   - Mulliken gross atomic population
  ZA   - Total nuclear charge
  QA   - Mulliken gross atomic charge
  VA   - Mayer's total valence
  BVA  - Mayer's bonded valence
  FA   - Mayer's free valence

  ATOM       NA         ZA         QA         VA         BVA        FA
  0 S     15.8662    16.0000     0.1338     2.5336     2.5336     0.0000
  1 C      6.1319     6.0000    -0.1319     3.8069     3.8069    -0.0000
  2 C      6.0749     6.0000    -0.0749     4.0179     4.0179    -0.0000
  3 C      6.0234     6.0000    -0.0234     3.9134     3.9134     0.0000
  4 C      6.1583     6.0000    -0.1583     3.9112     3.9112    -0.0000
  5 H      0.9576     1.0000     0.0424     0.9945     0.9945     0.0000
  6 C      5.9338     6.0000     0.0662     3.9791     3.9791     0.0000
  7 H      0.9575     1.0000     0.0425     0.9789     0.9789     0.0000
  8 H      0.9811     1.0000     0.0189     0.9934     0.9934    -0.0000
  9 C      6.0576     6.0000    -0.0576     4.0842     4.0842    -0.0000
 10 H      0.9753     1.0000     0.0247     0.9820     0.9820     0.0000
 11 H      0.9882     1.0000     0.0118     0.9821     0.9821    -0.0000
 12 C      6.0255     6.0000    -0.0255     3.9808     3.9808    -0.0000
 13 H      0.9754     1.0000     0.0246     0.9932     0.9932     0.0000
 14 H      0.9835     1.0000     0.0165     0.9946     0.9946    -0.0000
 15 H      0.9668     1.0000     0.0332     0.9878     0.9878    -0.0000
 16 S     15.9251    16.0000     0.0749     2.4406     2.4406    -0.0000
 17 C      6.0972     6.0000    -0.0972     3.8347     3.8347     0.0000
 18 C      6.0140     6.0000    -0.0140     3.9092     3.9092     0.0000
 19 C      6.0780     6.0000    -0.0780     4.0438     4.0438     0.0000
 20 C      6.1038     6.0000    -0.1038     3.9175     3.9175    -0.0000
 21 H      0.9603     1.0000     0.0397     0.9937     0.9937    -0.0000
 22 C      5.9406     6.0000     0.0594     3.9911     3.9911     0.0000
 23 H      0.9713     1.0000     0.0287     0.9807     0.9807    -0.0000
 24 H      1.0130     1.0000    -0.0130     1.0054     1.0054     0.0000
 25 C      6.0461     6.0000    -0.0461     4.0719     4.0719    -0.0000
 26 H      0.9700     1.0000     0.0300     0.9858     0.9858    -0.0000
 27 H      0.9846     1.0000     0.0154     0.9766     0.9766    -0.0000
 28 C      6.0640     6.0000    -0.0640     3.9960     3.9960     0.0000
 29 H      0.9348     1.0000     0.0652     0.9910     0.9910    -0.0000
 30 H      0.9742     1.0000     0.0258     0.9869     0.9869     0.0000
 31 H      0.9780     1.0000     0.0220     0.9873     0.9873     0.0000
 32 H      0.9479     1.0000     0.0521     1.0041     1.0041     0.0000
 33 H      0.9399     1.0000     0.0601     0.9963     0.9963    -0.0000

  Mayer bond orders larger than 0.100000
B(  0-S ,  1-C ) :   1.1534 B(  0-S ,  4-C ) :   1.1791 B(  1-C ,  2-C ) :   1.5521 
B(  1-C ,  4-C ) :   0.1042 B(  1-C , 32-H ) :   0.9675 B(  2-C ,  3-C ) :   1.3021 
B(  2-C ,  6-C ) :   1.0236 B(  3-C ,  4-C ) :   1.4957 B(  3-C ,  5-H ) :   0.9771 
B(  4-C , 20-C ) :   1.0738 B(  6-C ,  7-H ) :   0.9183 B(  6-C ,  8-H ) :   0.9468 
B(  6-C ,  9-C ) :   1.0901 B(  9-C , 10-H ) :   0.9553 B(  9-C , 11-H ) :   0.9518 
B(  9-C , 12-C ) :   1.0603 B( 12-C , 13-H ) :   0.9789 B( 12-C , 14-H ) :   0.9775 
B( 12-C , 15-H ) :   0.9726 B( 16-S , 17-C ) :   1.1328 B( 16-S , 20-C ) :   1.1183 
B( 17-C , 18-C ) :   1.6199 B( 17-C , 33-H ) :   0.9741 B( 18-C , 19-C ) :   1.2218 
B( 18-C , 21-H ) :   0.9846 B( 19-C , 20-C ) :   1.6105 B( 19-C , 22-C ) :   1.0487 
B( 22-C , 23-H ) :   0.9400 B( 22-C , 24-H ) :   0.9290 B( 22-C , 25-C ) :   1.0720 
B( 25-C , 26-H ) :   0.9615 B( 25-C , 27-H ) :   0.9527 B( 25-C , 28-C ) :   1.0709 
B( 28-C , 29-H ) :   0.9742 B( 28-C , 30-H ) :   0.9745 B( 28-C , 31-H ) :   0.9740 


-------
TIMINGS
-------

Total SCF time: 0 days 0 hours 0 min 20 sec 

Total time                  ....      20.666 sec
Sum of individual times     ....      19.809 sec  ( 95.9%)

Fock matrix formation       ....      18.146 sec  ( 87.8%)
  XC integration            ....       1.485 sec  (  8.2% of F)
    Basis function eval.    ....       0.141 sec  (  9.5% of XC)
    Density eval.           ....       0.109 sec  (  7.3% of XC)
    XC-Functional eval.     ....       0.121 sec  (  8.1% of XC)
    XC-Potential eval.      ....       0.124 sec  (  8.4% of XC)
Diagonalization             ....       0.129 sec  (  0.6%)
Density matrix formation    ....       0.022 sec  (  0.1%)
Population analysis         ....       0.055 sec  (  0.3%)
Initial guess               ....       0.174 sec  (  0.8%)
Orbital Transformation      ....       0.000 sec  (  0.0%)
Orbital Orthonormalization  ....       0.000 sec  (  0.0%)
DIIS solution               ....       0.155 sec  (  0.7%)
SOSCF solution              ....       0.127 sec  (  0.6%)
Grid generation             ....       1.001 sec  (  4.8%)


-------------------------------------------------------------------------------
                          DFT DISPERSION CORRECTION                            
                                                                               
                              DFTD3 V3.1  Rev 1                                
                              USING zero damping                               
-------------------------------------------------------------------------------
The omegaB97X-D3 functional is recognized. Fit by Chai et al.
Active option DFTDOPT                   ...         3   

molecular C6(AA) [au] = 14176.656798 


            DFT-D V3
 parameters
 s6 scaling factor         :     1.0000 
 rs6 scaling factor        :     1.2810 
 s8 scaling factor         :     1.0000 
 rs8 scaling factor        :     1.0940 
 Damping factor alpha6     :    14.0000 
 Damping factor alpha8     :    16.0000 
 ad hoc parameters k1-k3   :    16.0000     1.3333    -4.0000 

 Edisp/kcal,au: -9.526931313515  -0.015182129818 
 E6   /kcal   :  -4.466864001 
 E8   /kcal   :  -5.060067313 
 % E8         :  53.113296889 

-------------------------   ----------------
Dispersion correction           -0.015182130
-------------------------   ----------------


-------------------------   --------------------
FINAL SINGLE POINT ENERGY     -1339.872723790404
-------------------------   --------------------


                            ***************************************
                            *     ORCA property calculations      *
                            ***************************************

                                    ---------------------
                                    Active property flags
                                    ---------------------
   (+) Dipole Moment


------------------------------------------------------------------------------
                       ORCA ELECTRIC PROPERTIES CALCULATION
------------------------------------------------------------------------------

Dipole Moment Calculation                       ... on
Quadrupole Moment Calculation                   ... off
Polarizability Calculation                      ... off
GBWName                                         ... config_1984.gbw
Electron density file                           ... config_1984.scfp
The origin for moment calculation is the CENTER OF MASS  = (-144.282302, -2.704311 21.694843)

-------------
DIPOLE MOMENT
-------------
                                X             Y             Z
Electronic contribution:     17.87225     -14.26871      -1.10799
Nuclear contribution   :    -18.33224      14.66620       1.29931
                        -----------------------------------------
Total Dipole Moment    :     -0.45999       0.39749       0.19133
                        -----------------------------------------
Magnitude (a.u.)       :      0.63734
Magnitude (Debye)      :      1.61998



--------------------
Rotational spectrum 
--------------------
 
Rotational constants in cm-1:     0.020774     0.008556     0.007539 
Rotational constants in MHz :   622.784062   256.487595   226.006121 

 Dipole components along the rotational axes: 
x,y,z [a.u.] :    -0.241633    -0.513194     0.290590 
x,y,z [Debye]:    -0.614181    -1.304436     0.738622 

 

Timings for individual modules:

Sum of individual times         ...       21.820 sec (=   0.364 min)
GTO integral calculation        ...        0.785 sec (=   0.013 min)   3.6 %
SCF iterations                  ...       21.035 sec (=   0.351 min)  96.4 %
                             ****ORCA TERMINATED NORMALLY****
TOTAL RUN TIME: 0 days 0 hours 0 minutes 22 seconds 502 msec
