
                                 *****************
                                 * O   R   C   A *
                                 *****************

           --- An Ab Initio, DFT and Semiempirical electronic structure package ---

                  #######################################################
                  #                        -***-                        #
                  #          Department of theory and spectroscopy      #
                  #               Directorship: Frank Neese             #
                  #        Max Planck Institute fuer Kohlenforschung    #
                  #                Kaiser Wilhelm Platz 1               #
                  #                 D-45470 Muelheim/Ruhr               #
                  #                      Germany                        #
                  #                                                     #
                  #                  All rights reserved                #
                  #                        -***-                        #
                  #######################################################


                         Program Version 4.2.1 -  RELEASE  -


 With contributions from (in alphabetic order):
   Daniel Aravena         : Magnetic Suceptibility
   Michael Atanasov       : Ab Initio Ligand Field Theory (pilot matlab implementation)
   Alexander A. Auer      : GIAO ZORA, VPT2
   Ute Becker             : Parallelization
   Giovanni Bistoni       : ED, misc. LED, open-shell LED, HFLD
   Martin Brehm           : Molecular dynamics
   Dmytro Bykov           : SCF Hessian
   Vijay G. Chilkuri      : MRCI spin determinant printing, contributions to CSF-ICE
   Dipayan Datta          : RHF DLPNO-CCSD density
   Achintya Kumar Dutta   : EOM-CC, STEOM-CC
   Dmitry Ganyushin       : Spin-Orbit,Spin-Spin,Magnetic field MRCI
   Miquel Garcia          : C-PCM Hessian, Gaussian charge scheme
   Yang Guo               : DLPNO-NEVPT2, CIM, IAO-localization
   Andreas Hansen         : Spin unrestricted coupled pair/coupled cluster methods
   Benjamin Helmich-Paris : CASSCF linear response (MC-RPA)
   Lee Huntington         : MR-EOM, pCC
   Robert Izsak           : Overlap fitted RIJCOSX, COSX-SCS-MP3, EOM
   Christian Kollmar      : KDIIS, OOCD, Brueckner-CCSD(T), CCSD density
   Simone Kossmann        : Meta GGA functionals, TD-DFT gradient, OOMP2, MP2 Hessian
   Martin Krupicka        : AUTO-CI
   Lucas Lang             : DCDCAS
   Dagmar Lenk            : GEPOL surface, SMD
   Dimitrios Liakos       : Extrapolation schemes; Compound Job, initial MDCI parallelization
   Dimitrios Manganas     : Further ROCIS development; embedding schemes
   Dimitrios Pantazis     : SARC Basis sets
   Taras Petrenko         : DFT Hessian,TD-DFT gradient, ASA, ECA, R-Raman, ABS, FL, XAS/XES, NRVS
   Peter Pinski           : DLPNO-MP2, DLPNO-MP2 Gradient
   Christoph Reimann      : Effective Core Potentials
   Marius Retegan         : Local ZFS, SOC
   Christoph Riplinger    : Optimizer, TS searches, QM/MM, DLPNO-CCSD(T), (RO)-DLPNO pert. Triples
   Tobias Risthaus        : Range-separated hybrids, TD-DFT gradient, RPA, STAB
   Michael Roemelt        : Original ROCIS implementation
   Masaaki Saitow         : Open-shell DLPNO-CCSD energy and density
   Barbara Sandhoefer     : DKH picture change effects
   Avijit Sen             : IP-ROCIS
   Kantharuban Sivalingam : CASSCF convergence, NEVPT2, FIC-MRCI
   Bernardo de Souza      : ESD, SOC TD-DFT
   Georgi Stoychev        : AutoAux, RI-MP2 NMR
   Willem Van den Heuvel  : Paramagnetic NMR
   Boris Wezisla          : Elementary symmetry handling
   Frank Wennmohs         : Technical directorship


 We gratefully acknowledge several colleagues who have allowed us to
 interface, adapt or use parts of their codes:
   Stefan Grimme, W. Hujo, H. Kruse,             : VdW corrections, initial TS optimization,
                  C. Bannwarth                     DFT functionals, gCP, sTDA/sTD-DF
   Ed Valeev, F. Pavosevic, A. Kumar             : LibInt (2-el integral package), F12 methods
   Garnet Chan, S. Sharma, J. Yang, R. Olivares  : DMRG
   Ulf Ekstrom                                   : XCFun DFT Library
   Mihaly Kallay                                 : mrcc  (arbitrary order and MRCC methods)
   Andreas Klamt, Michael Diedenhofen            : otool_cosmo (COSMO solvation model)
   Jiri Pittner, Ondrej Demel                    : Mk-CCSD
   Frank Weinhold                                : gennbo (NPA and NBO analysis)
   Christopher J. Cramer and Donald G. Truhlar   : smd solvation model
   Lars Goerigk                                  : TD-DFT with DH, B97 family of functionals
   V. Asgeirsson, H. Jonsson                     : NEB implementation
   FAccTs GmbH                                   : IRC, NEB, NEB-TS, Multilevel, MM, QM/MM, CI optimization
   S Lehtola, MJT Oliveira, MAL Marques          : LibXC Library


 Your calculation uses the libint2 library for the computation of 2-el integrals
 For citations please refer to: http://libint.valeyev.net

 Your ORCA version has been built with support for libXC version: 4.2.3
 For citations please refer to: https://tddft.org/programs/libxc/

 This ORCA versions uses:
   CBLAS   interface :  Fast vector & matrix operations
   LAPACKE interface :  Fast linear algebra routines
   SCALAPACK package :  Parallel linear algebra routines


Your calculation utilizes the atom-pairwise dispersion correction
with the zero-damping scheme (D30)
Cite in your paper:
S.Grimme, J.Antony, S.Ehrlich and H.Krieg, J.Chem.Phys., 132, (2010), 154104 
   

XCFun DFT library Copyright 2009-2010 Ulf Ekstrom and contributors.
See http://admol.org/xcfun for more information. This is free soft-
ware; see the source code for copying conditions. There is ABSOLUTELY
NO WARRANTY; not even for MERCHANTABILITY or FITNESS FOR A PARTICULAR
PURPOSE. For details see the documentation. Scientific users of this 
library should cite U. Ekstrom, L. Visscher, R. Bast, A. J. Thorvald-
sen and K. Ruud; J.Chem.Theor.Comp. 2010, DOI: 10.1021/ct100117s
XCFun Version 0.99 
----- Orbital basis set information -----
Your calculation utilizes the basis: def2-SVP
   F. Weigend and R. Ahlrichs, Phys. Chem. Chem. Phys. 7, 3297 (2005).

================================================================================
                                        WARNINGS
                       Please study these warnings very carefully!
================================================================================


INFO   : the flag for use of LIBINT has been found!

================================================================================
                                       INPUT FILE
================================================================================
NAME = config_1402.inp
|  1> ! wB97X-D3 SP def2-SVP
|  2> %pal
|  3> nprocs 24
|  4> end
|  5> 
|  6> * xyz 0 1
|  7> S 	 -42.1673 	 13.2762 	 26.8206 	 
|  8> C 	 -43.564 	 12.245 	 26.9199 	 
|  9> C 	 -44.6201 	 12.9475 	 27.4444 	 
| 10> C 	 -44.2488 	 14.216 	 27.9888 	 
| 11> C 	 -42.9769 	 14.5936 	 27.7029 	 
| 12> H 	 -44.8442 	 14.8376 	 28.59 	 
| 13> C 	 -46.0301 	 12.3398 	 27.6767 	 
| 14> H 	 -46.5179 	 12.7757 	 28.5438 	 
| 15> H 	 -45.8274 	 11.3619 	 28.0719 	 
| 16> C 	 -46.9761 	 12.1795 	 26.4439 	 
| 17> H 	 -47.0273 	 13.0829 	 25.96 	 
| 18> H 	 -46.5788 	 11.3863 	 25.7321 	 
| 19> C 	 -48.4394 	 11.824 	 26.7802 	 
| 20> H 	 -49.1181 	 12.0304 	 25.9466 	 
| 21> H 	 -48.4401 	 10.8535 	 27.2276 	 
| 22> H 	 -48.8969 	 12.3572 	 27.5967 	 
| 23> S 	 -40.3976 	 15.5304 	 27.7968 	 
| 24> C 	 -40.0286 	 17.2006 	 28.248 	 
| 25> C 	 -41.2289 	 17.7842 	 28.5991 	 
| 26> C 	 -42.4181 	 17.0965 	 28.2294 	 
| 27> C 	 -42.1784 	 15.7728 	 27.9751 	 
| 28> H 	 -41.2094 	 18.8871 	 28.8944 	 
| 29> C 	 -43.7981 	 17.833 	 28.4485 	 
| 30> H 	 -43.8478 	 18.1 	 29.4731 	 
| 31> H 	 -44.7224 	 17.2681 	 28.3334 	 
| 32> C 	 -44.0587 	 19.0607 	 27.6548 	 
| 33> H 	 -43.2219 	 19.72 	 27.6528 	 
| 34> H 	 -45.0108 	 19.5622 	 27.9522 	 
| 35> C 	 -44.2021 	 18.646 	 26.2049 	 
| 36> H 	 -43.4345 	 17.9276 	 25.9882 	 
| 37> H 	 -43.877 	 19.4822 	 25.5605 	 
| 38> H 	 -45.1836 	 18.2564 	 26.002 	 
| 39> H 	 -43.6966 	 11.2827 	 26.4794 	 
| 40> H 	 -38.9781 	 17.5165 	 28.4185 	 
| 41> *
| 42> 
| 43>                          ****END OF INPUT****
================================================================================

                       ****************************
                       * Single Point Calculation *
                       ****************************

---------------------------------
CARTESIAN COORDINATES (ANGSTROEM)
---------------------------------
  S    -42.167300   13.276200   26.820600
  C    -43.564000   12.245000   26.919900
  C    -44.620100   12.947500   27.444400
  C    -44.248800   14.216000   27.988800
  C    -42.976900   14.593600   27.702900
  H    -44.844200   14.837600   28.590000
  C    -46.030100   12.339800   27.676700
  H    -46.517900   12.775700   28.543800
  H    -45.827400   11.361900   28.071900
  C    -46.976100   12.179500   26.443900
  H    -47.027300   13.082900   25.960000
  H    -46.578800   11.386300   25.732100
  C    -48.439400   11.824000   26.780200
  H    -49.118100   12.030400   25.946600
  H    -48.440100   10.853500   27.227600
  H    -48.896900   12.357200   27.596700
  S    -40.397600   15.530400   27.796800
  C    -40.028600   17.200600   28.248000
  C    -41.228900   17.784200   28.599100
  C    -42.418100   17.096500   28.229400
  C    -42.178400   15.772800   27.975100
  H    -41.209400   18.887100   28.894400
  C    -43.798100   17.833000   28.448500
  H    -43.847800   18.100000   29.473100
  H    -44.722400   17.268100   28.333400
  C    -44.058700   19.060700   27.654800
  H    -43.221900   19.720000   27.652800
  H    -45.010800   19.562200   27.952200
  C    -44.202100   18.646000   26.204900
  H    -43.434500   17.927600   25.988200
  H    -43.877000   19.482200   25.560500
  H    -45.183600   18.256400   26.002000
  H    -43.696600   11.282700   26.479400
  H    -38.978100   17.516500   28.418500

----------------------------
CARTESIAN COORDINATES (A.U.)
----------------------------
  NO LB      ZA    FRAG     MASS         X           Y           Z
   0 S    16.0000    0    32.060  -79.684649   25.088382   50.683589
   1 C     6.0000    0    12.011  -82.324029   23.139697   50.871239
   2 C     6.0000    0    12.011  -84.319769   24.467229   51.862400
   3 C     6.0000    0    12.011  -83.618114   26.864347   52.891167
   4 C     6.0000    0    12.011  -81.214571   27.577907   52.350894
   5 H     1.0000    0     1.008  -84.743257   28.039000   54.027270
   6 C     6.0000    0    12.011  -86.984283   23.318843   52.301383
   7 H     1.0000    0     1.008  -87.906091   24.142574   53.939965
   8 H     1.0000    0     1.008  -86.601235   21.470879   53.048203
   9 C     6.0000    0    12.011  -88.771964   23.015919   49.971729
  10 H     1.0000    0     1.008  -88.868718   24.723098   49.057290
  11 H     1.0000    0     1.008  -88.021176   21.516989   48.626622
  12 C     6.0000    0    12.011  -91.537200   22.344122   50.607244
  13 H     1.0000    0     1.008  -92.819757   22.734161   49.031968
  14 H     1.0000    0     1.008  -91.538523   20.510143   51.452707
  15 H     1.0000    0     1.008  -92.401750   23.351724   52.150205
  16 S    16.0000    0    32.060  -76.340400   29.348203   52.528339
  17 C     6.0000    0    12.011  -75.643092   32.504423   53.380984
  18 C     6.0000    0    12.011  -77.911330   33.607268   54.044467
  19 C     6.0000    0    12.011  -80.158592   32.307703   53.345835
  20 C     6.0000    0    12.011  -79.705625   29.806272   52.865278
  21 H     1.0000    0     1.008  -77.874480   35.691446   54.602503
  22 C     6.0000    0    12.011  -82.766414   33.699486   53.759874
  23 H     1.0000    0     1.008  -82.860334   34.204043   55.696087
  24 H     1.0000    0     1.008  -84.513088   32.631980   53.542366
  25 C     6.0000    0    12.011  -83.258877   36.019503   52.259998
  26 H     1.0000    0     1.008  -81.677554   37.265399   52.256219
  27 H     1.0000    0     1.008  -85.058085   36.967201   52.822003
  28 C     6.0000    0    12.011  -83.529864   35.235833   49.520084
  29 H     1.0000    0     1.008  -82.079310   33.878254   49.110581
  30 H     1.0000    0     1.008  -82.915514   36.816022   48.302345
  31 H     1.0000    0     1.008  -85.384630   34.499596   49.136659
  32 H     1.0000    0     1.008  -82.574607   21.321213   50.038814
  33 H     1.0000    0     1.008  -73.657934   33.101388   53.703182

--------------------------------
INTERNAL COORDINATES (ANGSTROEM)
--------------------------------
 S      0   0   0     0.000000000000     0.00000000     0.00000000
 C      1   0   0     1.738966595424     0.00000000     0.00000000
 C      2   1   0     1.372571932541   109.65211431     0.00000000
 C      3   2   1     1.429449999126   113.56925542   349.08777843
 C      4   3   2     1.357221492609   114.21018406    10.04855895
 H      4   3   2     1.049918644467   126.59538118   192.00688429
 C      3   2   1     1.552856265081   123.74634217   180.02742588
 H      7   3   2     1.086195221864   111.72468650   147.34745280
 H      7   3   2     1.074038518862   103.88615831    41.56790362
 C      7   3   2     1.562180504935   118.16145461   281.83255170
 H     10   7   3     1.026115105629   108.18142914   308.11855969
 H     10   7   3     1.137397366798   110.72585696    68.29862198
 C     10   7   3     1.542959762923   115.21017279   191.04556940
 H     13  10   7     1.094588329008   112.24725110   161.87742543
 H     13  10   7     1.068661546047   107.52417041   295.03176785
 H     13  10   7     1.077163283815   116.99825851    43.46078627
 S      5   4   3     2.745760357351   165.47530664   224.61941796
 C     17   5   4     1.768985720689   121.78941511   299.67266442
 C     18  17   5     1.380065310049   106.42323474     4.33481922
 C     19  18  17     1.422605363409   117.16189047   345.47341401
 C     20  19  18     1.369053055948   111.67293014    19.99280917
 H     19  18  17     1.141915386533   117.34634167   181.88908827
 C     20  19  18     1.579505321295   117.96232228   187.94585187
 H     23  20  19     1.059983136658   107.00781299   303.88668064
 H     23  20  19     1.089353253082   119.00320858   190.28939487
 C     23  20  19     1.484964423816   117.69001517    64.88538694
 H     26  23  20     1.065323767688   112.01266952   314.18193755
 H     26  23  20     1.116442304824   112.25035685   185.67052341
 C     26  23  20     1.514843113989   107.56929970    67.87191393
 H     29  26  23     1.073437101092   107.98336211   317.08526999
 H     29  26  23     1.104613873713   108.86047012   209.08070921
 H     29  26  23     1.075313358980   111.48086115    80.32787781
 H      2   1   3     1.066604097123   127.68169039   168.17382149
 H     18  17   5     1.110141121660   120.34653984   171.30196410

---------------------------
INTERNAL COORDINATES (A.U.)
---------------------------
 S      0   0   0     0.000000000000     0.00000000     0.00000000
 C      1   0   0     3.286170621389     0.00000000     0.00000000
 C      2   1   0     2.593785051610   109.65211431     0.00000000
 C      3   2   1     2.701269020481   113.56925542   349.08777843
 C      4   3   2     2.564776924103   114.21018406    10.04855895
 H      4   3   2     1.984058700941   126.59538118   192.00688429
 C      3   2   1     2.934473066346   123.74634217   180.02742588
 H      7   3   2     2.052611497297   111.72468650   147.34745280
 H      7   3   2     2.029638657932   103.88615831    41.56790362
 C      7   3   2     2.952093326079   118.16145461   281.83255170
 H     10   7   3     1.939076531518   108.18142914   308.11855969
 H     10   7   3     2.149369528692   110.72585696    68.29862198
 C     10   7   3     2.915771387585   115.21017279   191.04556940
 H     13  10   7     2.068472171211   112.24725110   161.87742543
 H     13  10   7     2.019477651882   107.52417041   295.03176785
 H     13  10   7     2.035543607926   116.99825851    43.46078627
 S      5   4   3     5.188735104771   165.47530664   224.61941796
 C     17   5   4     3.342898546919   121.78941511   299.67266442
 C     18  17   5     2.607945482917   106.42323474     4.33481922
 C     19  18  17     2.688334533490   117.16189047   345.47341401
 C     20  19  18     2.587135338549   111.67293014    19.99280917
 H     19  18  17     2.157907348658   117.34634167   181.88908827
 C     20  19  18     2.984832484319   117.96232228   187.94585187
 H     23  20  19     2.003077834859   107.00781299   303.88668064
 H     23  20  19     2.058579311421   119.00320858   190.28939487
 C     23  20  19     2.806176079629   117.69001517    64.88538694
 H     26  23  20     2.013170164887   112.01266952   314.18193755
 H     26  23  20     2.109770200441   112.25035685   185.67052341
 C     26  23  20     2.862638621296   107.56929970    67.87191393
 H     29  26  23     2.028502143054   107.98336211   317.08526999
 H     29  26  23     2.087417705048   108.86047012   209.08070921
 H     29  26  23     2.032047756618   111.48086115    80.32787781
 H      2   1   3     2.015589636881   127.68169039   168.17382149
 H     18  17   5     2.097862689941   120.34653984   171.30196410

---------------------
BASIS SET INFORMATION
---------------------
There are 3 groups of distinct atoms

 Group   1 Type S   : 10s7p1d contracted to 4s3p1d pattern {5311/511/1}
 Group   2 Type C   : 7s4p1d contracted to 3s2p1d pattern {511/31/1}
 Group   3 Type H   : 4s1p contracted to 2s1p pattern {31/1}

Atom   0S    basis set group =>   1
Atom   1C    basis set group =>   2
Atom   2C    basis set group =>   2
Atom   3C    basis set group =>   2
Atom   4C    basis set group =>   2
Atom   5H    basis set group =>   3
Atom   6C    basis set group =>   2
Atom   7H    basis set group =>   3
Atom   8H    basis set group =>   3
Atom   9C    basis set group =>   2
Atom  10H    basis set group =>   3
Atom  11H    basis set group =>   3
Atom  12C    basis set group =>   2
Atom  13H    basis set group =>   3
Atom  14H    basis set group =>   3
Atom  15H    basis set group =>   3
Atom  16S    basis set group =>   1
Atom  17C    basis set group =>   2
Atom  18C    basis set group =>   2
Atom  19C    basis set group =>   2
Atom  20C    basis set group =>   2
Atom  21H    basis set group =>   3
Atom  22C    basis set group =>   2
Atom  23H    basis set group =>   3
Atom  24H    basis set group =>   3
Atom  25C    basis set group =>   2
Atom  26H    basis set group =>   3
Atom  27H    basis set group =>   3
Atom  28C    basis set group =>   2
Atom  29H    basis set group =>   3
Atom  30H    basis set group =>   3
Atom  31H    basis set group =>   3
Atom  32H    basis set group =>   3
Atom  33H    basis set group =>   3


           ************************************************************
           *        Program running with 24 parallel MPI-processes    *
           *              working on a common directory               *
           ************************************************************
------------------------------------------------------------------------------
                           ORCA GTO INTEGRAL CALCULATION
------------------------------------------------------------------------------

                         BASIS SET STATISTICS AND STARTUP INFO

 # of primitive gaussian shells          ...  294
 # of primitive gaussian functions       ...  534
 # of contracted shells                  ...  154
 # of contracted basis functions         ...  322
 Highest angular momentum                ...    2
 Maximum contraction depth               ...    5
 Integral package used                   ... LIBINT
 Integral threshhold            Thresh   ...  1.000e-10
 Primitive cut-off              TCut     ...  1.000e-11


------------------------------ INTEGRAL EVALUATION ----------------------------


 * One electron integrals 
 Pre-screening matrix                    ... done
 Shell pair data                         ... done (   0.003 sec)



           ************************************************************
           *        Program running with 24 parallel MPI-processes    *
           *              working on a common directory               *
           ************************************************************
-------------------------------------------------------------------------------
                                 ORCA SCF
-------------------------------------------------------------------------------

------------
SCF SETTINGS
------------
Hamiltonian:
 Density Functional     Method          .... DFT(GTOs)
 Exchange Functional    Exchange        .... WB97X-D3
 Correlation Functional Correlation     .... WB97X-D3
 Gradients option       PostSCFGGA      .... off
 Hybrid DFT is turned on
   Fraction HF Exchange ScalHFX         ....  0.195728
   Scaling of DF-GGA-X  ScalDFX         ....  0.000000
   Scaling of DF-GGA-C  ScalDFC         ....  1.000000
   Scaling of DF-LDA-C  ScalLDAC        ....  1.000000
   Perturbative correction              ....  0.000000
   Density functional embedding theory  .... OFF
 Long-range corrected/Screened/Range-Separated Hybrid DFT is turned on
   Amount of maximum screened exact exchange              ....  0.804272
   Range separation parameter mu (erf(mu*r12)/r12)        ....  0.250000


General Settings:
 Integral files         IntName         .... config_1402
 Hartree-Fock type      HFTyp           .... RHF
 Total Charge           Charge          ....    0
 Multiplicity           Mult            ....    1
 Number of Electrons    NEL             ....  134
 Basis Dimension        Dim             ....  322
 Nuclear Repulsion      ENuc            ....   1272.8113237292 Eh

Convergence Acceleration:
 DIIS                   CNVDIIS         .... on
   Start iteration      DIISMaxIt       ....    12
   Startup error        DIISStart       ....  0.200000
   # of expansion vecs  DIISMaxEq       ....     5
   Bias factor          DIISBfac        ....   1.050
   Max. coefficient     DIISMaxC        ....  10.000
 Newton-Raphson         CNVNR           .... off
 SOSCF                  CNVSOSCF        .... on
   Start iteration      SOSCFMaxIt      ....   150
   Startup grad/error   SOSCFStart      ....  0.003300
 Level Shifting         CNVShift        .... on
   Level shift para.    LevelShift      ....    0.2500
   Turn off err/grad.   ShiftErr        ....    0.0010
 Zerner damping         CNVZerner       .... off
 Static damping         CNVDamp         .... on
   Fraction old density DampFac         ....    0.7000
   Max. Damping (<1)    DampMax         ....    0.9800
   Min. Damping (>=0)   DampMin         ....    0.0000
   Turn off err/grad.   DampErr         ....    0.1000
 Fernandez-Rico         CNVRico         .... off

SCF Procedure:
 Maximum # iterations   MaxIter         ....   125
 SCF integral mode      SCFMode         .... Direct
   Integral package                     .... LIBINT
 Reset frequency        DirectResetFreq ....    20
 Integral Threshold     Thresh          ....  1.000e-10 Eh
 Primitive CutOff       TCut            ....  1.000e-11 Eh

Convergence Tolerance:
 Convergence Check Mode ConvCheckMode   .... Total+1el-Energy
 Convergence forced     ConvForced      .... 0
 Energy Change          TolE            ....  1.000e-06 Eh
 1-El. energy change                    ....  1.000e-03 Eh
 Orbital Gradient       TolG            ....  5.000e-05
 Orbital Rotation angle TolX            ....  5.000e-05
 DIIS Error             TolErr          ....  1.000e-06


Diagonalization of the overlap matrix:
Smallest eigenvalue                        ... 6.825e-04
Time for diagonalization                   ...    0.014 sec
Threshold for overlap eigenvalues          ... 1.000e-08
Number of eigenvalues below threshold      ... 0
Time for construction of square roots      ...    0.028 sec
Total time needed                          ...    0.043 sec

-------------------
DFT GRID GENERATION
-------------------

General Integration Accuracy     IntAcc      ...  4.340
Radial Grid Type                 RadialGrid  ... Gauss-Chebyshev
Angular Grid (max. acc.)         AngularGrid ... Lebedev-110
Angular grid pruning method      GridPruning ... 3 (G Style)
Weight generation scheme         WeightScheme... Becke
Basis function cutoff            BFCut       ...    1.0000e-10
Integration weight cutoff        WCut        ...    1.0000e-14
Grids for H and He will be reduced by one unit

# of grid points (after initial pruning)     ...  41088 (   0.0 sec)
# of grid points (after weights+screening)   ...  37071 (   0.0 sec)
nearest neighbour list constructed           ...    0.0 sec
Grid point re-assignment to atoms done       ...    0.0 sec
Grid point division into batches done        ...    0.0 sec
Reduced shell lists constructed in    0.1 sec

Total number of grid points                  ...    37071
Total number of batches                      ...      598
Average number of points per batch           ...       61
Average number of grid points per atom       ...     1090
Average number of shells per batch           ...    72.54 (47.10%)
Average number of basis functions per batch  ...   143.54 (44.58%)
Average number of large shells per batch     ...    45.77 (63.10%)
Average number of large basis fcns per batch ...    96.15 (66.99%)
Maximum spatial batch extension              ...  15.50, 12.98, 15.44 au
Average spatial batch extension              ...   0.17,  0.16,  0.17 au

Time for grid setup =    0.154 sec

------------------------------
INITIAL GUESS: MODEL POTENTIAL
------------------------------
Loading Hartree-Fock densities                     ... done
Calculating cut-offs                               ... done
Setting up the integral package                    ... done
Initializing the effective Hamiltonian             ... done
Starting the Coulomb interaction                   ... done (   0.0 sec)
Reading the grid                                   ... done
Mapping shells                                     ... done
Starting the XC term evaluation                    ... done (   0.0 sec)
  promolecular density results
     # of electrons  =    133.988107144
     EX              =   -126.731955980
     EC              =     -4.620232253
     EX+EC           =   -131.352188233
Transforming the Hamiltonian                       ... done (   0.0 sec)
Diagonalizing the Hamiltonian                      ... done (   0.0 sec)
Back transforming the eigenvectors                 ... done (   0.0 sec)
Now organizing SCF variables                       ... done
                      ------------------
                      INITIAL GUESS DONE (   0.3 sec)
                      ------------------
--------------
SCF ITERATIONS
--------------
ITER       Energy         Delta-E        Max-DP      RMS-DP      [F,P]     Damp
               ***  Starting incremental Fock matrix formation  ***
  0  -1339.4040303550   0.000000000000 0.06886565  0.00161796  0.1693379 0.7000
  1  -1339.5899759386  -0.185945583569 0.04604756  0.00116687  0.1016805 0.7000
                               ***Turning on DIIS***
  2  -1339.6799249917  -0.089949053066 0.08318316  0.00217889  0.0522009 0.0000
  3  -1339.8166191559  -0.136694164291 0.04032858  0.00102282  0.0428682 0.0000
  4  -1339.8457071288  -0.029087972851 0.00776058  0.00019453  0.0075518 0.0000
                      *** Initiating the SOSCF procedure ***
                           *** Shutting down DIIS ***
                      *** Re-Reading the Fockian *** 
                      *** Removing any level shift *** 
ITER      Energy       Delta-E        Grad      Rot      Max-DP    RMS-DP
  5  -1339.84656619  -0.0008590651  0.001878  0.001878  0.002928  0.000098
               *** Restarting incremental Fock matrix formation ***
  6  -1339.84675639  -0.0001901974  0.001702  0.004845  0.002534  0.000062
  7  -1339.84682501  -0.0000686173  0.000944  0.005923  0.003195  0.000060
  8  -1339.84684320  -0.0000181938  0.000306  0.000628  0.000748  0.000017
  9  -1339.84684730  -0.0000040992  0.000116  0.000320  0.000239  0.000008
                 **** Energy Check signals convergence ****
              ***Rediagonalizing the Fockian in SOSCF/NRSCF***

               *****************************************************
               *                     SUCCESS                       *
               *           SCF CONVERGED AFTER  10 CYCLES          *
               *****************************************************

Setting up the final grid:

General Integration Accuracy     IntAcc      ...  4.670
Radial Grid Type                 RadialGrid  ... Gauss-Chebyshev
Angular Grid (max. acc.)         AngularGrid ... Lebedev-302
Angular grid pruning method      GridPruning ... 3 (G Style)
Weight generation scheme         WeightScheme... Becke
Basis function cutoff            BFCut       ...    1.0000e-10
Integration weight cutoff        WCut        ...    1.0000e-14
Grids for H and He will be reduced by one unit

# of grid points (after initial pruning)     ... 161752 (   0.0 sec)
# of grid points (after weights+screening)   ... 143101 (   0.1 sec)
nearest neighbour list constructed           ...    0.0 sec
Grid point re-assignment to atoms done       ...    0.0 sec
Grid point division into batches done        ...    0.5 sec
Reduced shell lists constructed in    0.5 sec

Total number of grid points                  ...   143101
Total number of batches                      ...     2254
Average number of points per batch           ...       63
Average number of grid points per atom       ...     4209
Average number of shells per batch           ...    65.51 (42.54%)
Average number of basis functions per batch  ...   129.74 (40.29%)
Average number of large shells per batch     ...    40.15 (61.29%)
Average number of large basis fcns per batch ...    84.23 (64.92%)
Maximum spatial batch extension              ...  12.54, 13.29, 15.26 au
Average spatial batch extension              ...   0.11,  0.10,  0.11 au

Final grid set up in    0.8 sec
Final integration                            ... done (   0.3 sec)
Change in XC energy                          ...     0.007009288
Integrated number of electrons               ...   133.999971133
Previous integrated no of electrons          ...   133.993618930

----------------
TOTAL SCF ENERGY
----------------

Total Energy       :        -1339.83983826 Eh          -36458.89553 eV

Components:
Nuclear Repulsion  :         1272.81132373 Eh           34634.95693 eV
Electronic Energy  :        -2612.65116199 Eh          -71093.85246 eV
One Electron Energy:        -4362.12655023 Eh         -118699.49800 eV
Two Electron Energy:         1749.47538825 Eh           47605.64554 eV

Virial components:
Potential Energy   :        -2671.51795329 Eh          -72695.69929 eV
Kinetic Energy     :         1331.67811503 Eh           36236.80375 eV
Virial Ratio       :            2.00612890


DFT components:
N(Alpha)           :       66.999985566281 electrons
N(Beta)            :       66.999985566281 electrons
N(Total)           :      133.999971132562 electrons
E(XC)              :      -94.283414104294 Eh       
DFET-embed. en.    :        0.000000000000 Eh       

---------------
SCF CONVERGENCE
---------------

  Last Energy change         ...   -2.4507e-07  Tolerance :   1.0000e-06
  Last MAX-Density change    ...    1.3877e-04  Tolerance :   1.0000e-05
  Last RMS-Density change    ...    3.2363e-06  Tolerance :   1.0000e-06
  Last Orbital Gradient      ...    8.7894e-05  Tolerance :   5.0000e-05
  Last Orbital Rotation      ...    1.8215e-04  Tolerance :   5.0000e-05

             **** THE GBW FILE WAS UPDATED (config_1402.gbw) ****
             **** DENSITY FILE WAS UPDATED (config_1402.scfp) ****
             **** ENERGY FILE WAS UPDATED (config_1402.en.tmp) ****
             **** THE GBW FILE WAS UPDATED (config_1402.gbw) ****
             **** DENSITY FILE WAS UPDATED (config_1402.scfp) ****
----------------
ORBITAL ENERGIES
----------------

  NO   OCC          E(Eh)            E(eV) 
   0   2.0000     -88.963290     -2420.8142 
   1   2.0000     -88.961869     -2420.7755 
   2   2.0000     -10.336409      -281.2680 
   3   2.0000     -10.331880      -281.1448 
   4   2.0000     -10.326722      -281.0044 
   5   2.0000     -10.312828      -280.6263 
   6   2.0000     -10.311733      -280.5965 
   7   2.0000     -10.303069      -280.3608 
   8   2.0000     -10.302642      -280.3491 
   9   2.0000     -10.292755      -280.0801 
  10   2.0000     -10.291810      -280.0544 
  11   2.0000     -10.291311      -280.0408 
  12   2.0000     -10.288180      -279.9556 
  13   2.0000     -10.280013      -279.7334 
  14   2.0000     -10.275769      -279.6179 
  15   2.0000     -10.265372      -279.3350 
  16   2.0000      -8.077992      -219.8133 
  17   2.0000      -8.076118      -219.7623 
  18   2.0000      -6.036654      -164.2657 
  19   2.0000      -6.034817      -164.2157 
  20   2.0000      -6.032504      -164.1528 
  21   2.0000      -6.030724      -164.1043 
  22   2.0000      -6.028553      -164.0453 
  23   2.0000      -6.026627      -163.9928 
  24   2.0000      -1.008747       -27.4494 
  25   2.0000      -0.984875       -26.7998 
  26   2.0000      -0.919462       -25.0198 
  27   2.0000      -0.905351       -24.6358 
  28   2.0000      -0.872861       -23.7518 
  29   2.0000      -0.853662       -23.2293 
  30   2.0000      -0.841308       -22.8932 
  31   2.0000      -0.818442       -22.2709 
  32   2.0000      -0.784409       -21.3448 
  33   2.0000      -0.774783       -21.0829 
  34   2.0000      -0.707717       -19.2580 
  35   2.0000      -0.706539       -19.2259 
  36   2.0000      -0.690576       -18.7915 
  37   2.0000      -0.661321       -17.9954 
  38   2.0000      -0.644416       -17.5355 
  39   2.0000      -0.623481       -16.9658 
  40   2.0000      -0.609352       -16.5813 
  41   2.0000      -0.561051       -15.2670 
  42   2.0000      -0.558809       -15.2060 
  43   2.0000      -0.557820       -15.1791 
  44   2.0000      -0.551679       -15.0119 
  45   2.0000      -0.529218       -14.4008 
  46   2.0000      -0.522747       -14.2247 
  47   2.0000      -0.513431       -13.9712 
  48   2.0000      -0.506295       -13.7770 
  49   2.0000      -0.499486       -13.5917 
  50   2.0000      -0.495198       -13.4750 
  51   2.0000      -0.478586       -13.0230 
  52   2.0000      -0.472386       -12.8543 
  53   2.0000      -0.465956       -12.6793 
  54   2.0000      -0.455562       -12.3965 
  55   2.0000      -0.445581       -12.1249 
  56   2.0000      -0.441115       -12.0034 
  57   2.0000      -0.437520       -11.9055 
  58   2.0000      -0.425989       -11.5918 
  59   2.0000      -0.423938       -11.5359 
  60   2.0000      -0.419046       -11.4028 
  61   2.0000      -0.413558       -11.2535 
  62   2.0000      -0.403996       -10.9933 
  63   2.0000      -0.365324        -9.9410 
  64   2.0000      -0.335639        -9.1332 
  65   2.0000      -0.327857        -8.9214 
  66   2.0000      -0.286994        -7.8095 
  67   0.0000       0.015862         0.4316 
  68   0.0000       0.081363         2.2140 
  69   0.0000       0.091767         2.4971 
  70   0.0000       0.116621         3.1734 
  71   0.0000       0.135808         3.6955 
  72   0.0000       0.145827         3.9681 
  73   0.0000       0.156097         4.2476 
  74   0.0000       0.158693         4.3183 
  75   0.0000       0.168006         4.5717 
  76   0.0000       0.169234         4.6051 
  77   0.0000       0.176103         4.7920 
  78   0.0000       0.180844         4.9210 
  79   0.0000       0.193944         5.2775 
  80   0.0000       0.199559         5.4303 
  81   0.0000       0.205342         5.5876 
  82   0.0000       0.212224         5.7749 
  83   0.0000       0.216398         5.8885 
  84   0.0000       0.220200         5.9920 
  85   0.0000       0.233151         6.3443 
  86   0.0000       0.239203         6.5090 
  87   0.0000       0.243805         6.6343 
  88   0.0000       0.248263         6.7556 
  89   0.0000       0.250722         6.8225 
  90   0.0000       0.254454         6.9241 
  91   0.0000       0.257092         6.9958 
  92   0.0000       0.270181         7.3520 
  93   0.0000       0.295690         8.0461 
  94   0.0000       0.300850         8.1865 
  95   0.0000       0.313085         8.5195 
  96   0.0000       0.316835         8.6215 
  97   0.0000       0.335708         9.1351 
  98   0.0000       0.356255         9.6942 
  99   0.0000       0.369556        10.0561 
 100   0.0000       0.378329        10.2949 
 101   0.0000       0.399621        10.8743 
 102   0.0000       0.410409        11.1678 
 103   0.0000       0.427092        11.6218 
 104   0.0000       0.431662        11.7461 
 105   0.0000       0.451033        12.2732 
 106   0.0000       0.472761        12.8645 
 107   0.0000       0.475827        12.9479 
 108   0.0000       0.486156        13.2290 
 109   0.0000       0.492701        13.4071 
 110   0.0000       0.496398        13.5077 
 111   0.0000       0.499842        13.6014 
 112   0.0000       0.509766        13.8714 
 113   0.0000       0.518107        14.0984 
 114   0.0000       0.534170        14.5355 
 115   0.0000       0.537642        14.6300 
 116   0.0000       0.549171        14.9437 
 117   0.0000       0.559542        15.2259 
 118   0.0000       0.561561        15.2809 
 119   0.0000       0.572063        15.5666 
 120   0.0000       0.578730        15.7480 
 121   0.0000       0.585841        15.9415 
 122   0.0000       0.601022        16.3546 
 123   0.0000       0.607134        16.5210 
 124   0.0000       0.617970        16.8158 
 125   0.0000       0.624856        17.0032 
 126   0.0000       0.634645        17.2696 
 127   0.0000       0.647749        17.6261 
 128   0.0000       0.648454        17.6453 
 129   0.0000       0.663255        18.0481 
 130   0.0000       0.668138        18.1810 
 131   0.0000       0.672832        18.3087 
 132   0.0000       0.688550        18.7364 
 133   0.0000       0.693678        18.8759 
 134   0.0000       0.706144        19.2151 
 135   0.0000       0.713795        19.4234 
 136   0.0000       0.718361        19.5476 
 137   0.0000       0.731478        19.9045 
 138   0.0000       0.734356        19.9828 
 139   0.0000       0.740530        20.1508 
 140   0.0000       0.740775        20.1575 
 141   0.0000       0.745094        20.2750 
 142   0.0000       0.754370        20.5274 
 143   0.0000       0.755937        20.5701 
 144   0.0000       0.760334        20.6897 
 145   0.0000       0.762763        20.7558 
 146   0.0000       0.770609        20.9693 
 147   0.0000       0.776387        21.1266 
 148   0.0000       0.784864        21.3572 
 149   0.0000       0.786454        21.4005 
 150   0.0000       0.791755        21.5448 
 151   0.0000       0.791952        21.5501 
 152   0.0000       0.796570        21.6758 
 153   0.0000       0.797739        21.7076 
 154   0.0000       0.800864        21.7926 
 155   0.0000       0.806250        21.9392 
 156   0.0000       0.811914        22.0933 
 157   0.0000       0.817730        22.2516 
 158   0.0000       0.819795        22.3078 
 159   0.0000       0.823580        22.4108 
 160   0.0000       0.830377        22.5957 
 161   0.0000       0.833904        22.6917 
 162   0.0000       0.840844        22.8805 
 163   0.0000       0.847665        23.0661 
 164   0.0000       0.857463        23.3328 
 165   0.0000       0.860398        23.4126 
 166   0.0000       0.870235        23.6803 
 167   0.0000       0.883321        24.0364 
 168   0.0000       0.888287        24.1715 
 169   0.0000       0.901495        24.5309 
 170   0.0000       0.906506        24.6673 
 171   0.0000       0.919824        25.0297 
 172   0.0000       0.929327        25.2883 
 173   0.0000       0.930919        25.3316 
 174   0.0000       0.950635        25.8681 
 175   0.0000       0.970321        26.4038 
 176   0.0000       0.976057        26.5599 
 177   0.0000       0.997676        27.1481 
 178   0.0000       1.007522        27.4161 
 179   0.0000       1.024874        27.8882 
 180   0.0000       1.048332        28.5266 
 181   0.0000       1.062937        28.9240 
 182   0.0000       1.086673        29.5699 
 183   0.0000       1.103258        30.0212 
 184   0.0000       1.126585        30.6559 
 185   0.0000       1.138626        30.9836 
 186   0.0000       1.156836        31.4791 
 187   0.0000       1.163549        31.6618 
 188   0.0000       1.178249        32.0618 
 189   0.0000       1.194542        32.5051 
 190   0.0000       1.224258        33.3138 
 191   0.0000       1.231226        33.5034 
 192   0.0000       1.246704        33.9245 
 193   0.0000       1.269093        34.5338 
 194   0.0000       1.281941        34.8834 
 195   0.0000       1.298915        35.3453 
 196   0.0000       1.331040        36.2194 
 197   0.0000       1.348058        36.6825 
 198   0.0000       1.369764        37.2732 
 199   0.0000       1.378226        37.5034 
 200   0.0000       1.392112        37.8813 
 201   0.0000       1.411009        38.3955 
 202   0.0000       1.420562        38.6555 
 203   0.0000       1.445997        39.3476 
 204   0.0000       1.465582        39.8805 
 205   0.0000       1.474466        40.1223 
 206   0.0000       1.478618        40.2352 
 207   0.0000       1.528883        41.6030 
 208   0.0000       1.540683        41.9241 
 209   0.0000       1.546598        42.0851 
 210   0.0000       1.576316        42.8937 
 211   0.0000       1.588017        43.2121 
 212   0.0000       1.611179        43.8424 
 213   0.0000       1.640401        44.6376 
 214   0.0000       1.643358        44.7180 
 215   0.0000       1.647930        44.8425 
 216   0.0000       1.663905        45.2772 
 217   0.0000       1.686480        45.8915 
 218   0.0000       1.718318        46.7578 
 219   0.0000       1.748538        47.5801 
 220   0.0000       1.773091        48.2483 
 221   0.0000       1.785832        48.5949 
 222   0.0000       1.799433        48.9651 
 223   0.0000       1.807415        49.1822 
 224   0.0000       1.810513        49.2666 
 225   0.0000       1.818393        49.4810 
 226   0.0000       1.824471        49.6464 
 227   0.0000       1.853936        50.4482 
 228   0.0000       1.860649        50.6308 
 229   0.0000       1.866550        50.7914 
 230   0.0000       1.871287        50.9203 
 231   0.0000       1.880026        51.1581 
 232   0.0000       1.884013        51.2666 
 233   0.0000       1.884708        51.2855 
 234   0.0000       1.911811        52.0230 
 235   0.0000       1.920241        52.2524 
 236   0.0000       1.923147        52.3315 
 237   0.0000       1.934906        52.6515 
 238   0.0000       1.939993        52.7899 
 239   0.0000       1.945115        52.9293 
 240   0.0000       1.956418        53.2369 
 241   0.0000       1.961580        53.3773 
 242   0.0000       1.966451        53.5098 
 243   0.0000       1.980377        53.8888 
 244   0.0000       1.983725        53.9799 
 245   0.0000       1.992884        54.2291 
 246   0.0000       1.999810        54.4176 
 247   0.0000       2.006470        54.5988 
 248   0.0000       2.017230        54.8916 
 249   0.0000       2.026788        55.1517 
 250   0.0000       2.064619        56.1811 
 251   0.0000       2.067489        56.2592 
 252   0.0000       2.077858        56.5414 
 253   0.0000       2.088279        56.8250 
 254   0.0000       2.093920        56.9785 
 255   0.0000       2.103899        57.2500 
 256   0.0000       2.115529        57.5665 
 257   0.0000       2.126468        57.8641 
 258   0.0000       2.130160        57.9646 
 259   0.0000       2.151818        58.5539 
 260   0.0000       2.159347        58.7588 
 261   0.0000       2.179076        59.2957 
 262   0.0000       2.180006        59.3210 
 263   0.0000       2.186838        59.5069 
 264   0.0000       2.209354        60.1196 
 265   0.0000       2.240933        60.9789 
 266   0.0000       2.259181        61.4754 
 267   0.0000       2.274730        61.8985 
 268   0.0000       2.290131        62.3176 
 269   0.0000       2.306211        62.7552 
 270   0.0000       2.318339        63.0852 
 271   0.0000       2.347105        63.8680 
 272   0.0000       2.353376        64.0386 
 273   0.0000       2.399991        65.3071 
 274   0.0000       2.410591        65.5955 
 275   0.0000       2.423989        65.9601 
 276   0.0000       2.435906        66.2844 
 277   0.0000       2.447354        66.5959 
 278   0.0000       2.483853        67.5891 
 279   0.0000       2.491383        67.7940 
 280   0.0000       2.501996        68.0828 
 281   0.0000       2.507018        68.2194 
 282   0.0000       2.522988        68.6540 
 283   0.0000       2.530352        68.8544 
 284   0.0000       2.536646        69.0257 
 285   0.0000       2.573881        70.0389 
 286   0.0000       2.579587        70.1941 
 287   0.0000       2.590430        70.4892 
 288   0.0000       2.603713        70.8506 
 289   0.0000       2.625328        71.4388 
 290   0.0000       2.659002        72.3551 
 291   0.0000       2.682440        72.9929 
 292   0.0000       2.707491        73.6746 
 293   0.0000       2.713005        73.8246 
 294   0.0000       2.731125        74.3177 
 295   0.0000       2.741458        74.5989 
 296   0.0000       2.771518        75.4168 
 297   0.0000       2.783610        75.7459 
 298   0.0000       2.794976        76.0552 
 299   0.0000       2.815383        76.6105 
 300   0.0000       2.844400        77.4001 
 301   0.0000       2.876855        78.2832 
 302   0.0000       2.903820        79.0170 
 303   0.0000       2.937301        79.9280 
 304   0.0000       2.986794        81.2748 
 305   0.0000       2.993094        81.4462 
 306   0.0000       3.010372        81.9164 
 307   0.0000       3.026407        82.3527 
 308   0.0000       3.038851        82.6913 
 309   0.0000       3.048785        82.9617 
 310   0.0000       3.050364        83.0046 
 311   0.0000       3.088808        84.0507 
 312   0.0000       3.090571        84.0987 
 313   0.0000       3.123550        84.9961 
 314   0.0000       3.140387        85.4543 
 315   0.0000       3.191923        86.8566 
 316   0.0000       3.197394        87.0055 
 317   0.0000       3.224057        87.7310 
 318   0.0000       3.272768        89.0565 
 319   0.0000       3.302449        89.8642 
 320   0.0000       3.338862        90.8550 
 321   0.0000       3.459758        94.1448 

                    ********************************
                    * MULLIKEN POPULATION ANALYSIS *
                    ********************************

-----------------------
MULLIKEN ATOMIC CHARGES
-----------------------
   0 S :    0.086915
   1 C :   -0.086443
   2 C :   -0.088552
   3 C :    0.016944
   4 C :   -0.092963
   5 H :   -0.010916
   6 C :    0.044774
   7 H :    0.014452
   8 H :    0.018522
   9 C :   -0.046864
  10 H :    0.016171
  11 H :    0.042455
  12 C :   -0.045563
  13 H :    0.046203
  14 H :    0.020719
  15 H :    0.011983
  16 S :    0.059761
  17 C :   -0.096991
  18 C :   -0.054667
  19 C :   -0.065651
  20 C :   -0.099165
  21 H :    0.050700
  22 C :    0.073901
  23 H :    0.023254
  24 H :    0.012277
  25 C :   -0.073688
  26 H :    0.014317
  27 H :    0.039315
  28 C :   -0.049165
  29 H :    0.031538
  30 H :    0.027019
  31 H :    0.030725
  32 H :    0.042932
  33 H :    0.085751
Sum of atomic charges:   -0.0000000

--------------------------------
MULLIKEN REDUCED ORBITAL CHARGES
--------------------------------
  0 S s       :     5.840013  s :     5.840013
      pz      :     3.571448  p :     9.966690
      px      :     3.346300
      py      :     3.048942
      dz2     :     0.014553  d :     0.106382
      dxz     :     0.013986
      dyz     :     0.022147
      dx2y2   :     0.018346
      dxy     :     0.037350
  1 C s       :     3.159711  s :     3.159711
      pz      :     1.069546  p :     2.892194
      px      :     0.904044
      py      :     0.918604
      dz2     :     0.004158  d :     0.034537
      dxz     :     0.006269
      dyz     :     0.004987
      dx2y2   :     0.008253
      dxy     :     0.010871
  2 C s       :     3.087263  s :     3.087263
      pz      :     1.004285  p :     2.957591
      px      :     0.966983
      py      :     0.986323
      dz2     :     0.005605  d :     0.043699
      dxz     :     0.007589
      dyz     :     0.006348
      dx2y2   :     0.011911
      dxy     :     0.012246
  3 C s       :     3.198338  s :     3.198338
      pz      :     0.939556  p :     2.748981
      px      :     0.913412
      py      :     0.896013
      dz2     :     0.003696  d :     0.035738
      dxz     :     0.006979
      dyz     :     0.006291
      dx2y2   :     0.009975
      dxy     :     0.008797
  4 C s       :     3.044609  s :     3.044609
      pz      :     1.038604  p :     3.003286
      px      :     0.960820
      py      :     1.003863
      dz2     :     0.005607  d :     0.045068
      dxz     :     0.008361
      dyz     :     0.007702
      dx2y2   :     0.008758
      dxy     :     0.014640
  5 H s       :     0.984730  s :     0.984730
      pz      :     0.009209  p :     0.026186
      px      :     0.008289
      py      :     0.008688
  6 C s       :     2.974386  s :     2.974386
      pz      :     0.988130  p :     2.946981
      px      :     0.937023
      py      :     1.021828
      dz2     :     0.005869  d :     0.033859
      dxz     :     0.008503
      dyz     :     0.006846
      dx2y2   :     0.007476
      dxy     :     0.005166
  7 H s       :     0.962147  s :     0.962147
      pz      :     0.010465  p :     0.023401
      px      :     0.005632
      py      :     0.007304
  8 H s       :     0.956790  s :     0.956790
      pz      :     0.006267  p :     0.024688
      px      :     0.005219
      py      :     0.013201
  9 C s       :     3.045336  s :     3.045336
      pz      :     1.000909  p :     2.965731
      px      :     0.944002
      py      :     1.020821
      dz2     :     0.004141  d :     0.035796
      dxz     :     0.008130
      dyz     :     0.009529
      dx2y2   :     0.008995
      dxy     :     0.005001
 10 H s       :     0.958251  s :     0.958251
      pz      :     0.007328  p :     0.025578
      px      :     0.005250
      py      :     0.013000
 11 H s       :     0.937282  s :     0.937282
      pz      :     0.007006  p :     0.020262
      px      :     0.004404
      py      :     0.008852
 12 C s       :     3.001241  s :     3.001241
      pz      :     1.002764  p :     3.015735
      px      :     0.961394
      py      :     1.051577
      dz2     :     0.002879  d :     0.028588
      dxz     :     0.008310
      dyz     :     0.006246
      dx2y2   :     0.007259
      dxy     :     0.003893
 13 H s       :     0.930379  s :     0.930379
      pz      :     0.010792  p :     0.023419
      px      :     0.007641
      py      :     0.004986
 14 H s       :     0.954168  s :     0.954168
      pz      :     0.006918  p :     0.025113
      px      :     0.004639
      py      :     0.013556
 15 H s       :     0.962778  s :     0.962778
      pz      :     0.010768  p :     0.025239
      px      :     0.005955
      py      :     0.008517
 16 S s       :     5.848947  s :     5.848947
      pz      :     3.674393  p :     9.991161
      px      :     3.069951
      py      :     3.246817
      dz2     :     0.012032  d :     0.100131
      dxz     :     0.015696
      dyz     :     0.014991
      dx2y2   :     0.041021
      dxy     :     0.016390
 17 C s       :     3.178278  s :     3.178278
      pz      :     1.052509  p :     2.884621
      px      :     0.946042
      py      :     0.886070
      dz2     :     0.003901  d :     0.034092
      dxz     :     0.005144
      dyz     :     0.005214
      dx2y2   :     0.013032
      dxy     :     0.006802
 18 C s       :     3.170281  s :     3.170281
      pz      :     1.005312  p :     2.848760
      px      :     0.906880
      py      :     0.936568
      dz2     :     0.003582  d :     0.035627
      dxz     :     0.009048
      dyz     :     0.002796
      dx2y2   :     0.010499
      dxy     :     0.009702
 19 C s       :     3.086338  s :     3.086338
      pz      :     1.003397  p :     2.936959
      px      :     0.960624
      py      :     0.972939
      dz2     :     0.004132  d :     0.042353
      dxz     :     0.006760
      dyz     :     0.007624
      dx2y2   :     0.012180
      dxy     :     0.011657
 20 C s       :     3.048260  s :     3.048260
      pz      :     1.100412  p :     3.007468
      px      :     0.905145
      py      :     1.001911
      dz2     :     0.003999  d :     0.043438
      dxz     :     0.005448
      dyz     :     0.008563
      dx2y2   :     0.015268
      dxy     :     0.010160
 21 H s       :     0.928238  s :     0.928238
      pz      :     0.004805  p :     0.021063
      px      :     0.002732
      py      :     0.013526
 22 C s       :     2.945536  s :     2.945536
      pz      :     1.023387  p :     2.943821
      px      :     0.933384
      py      :     0.987049
      dz2     :     0.011515  d :     0.036743
      dxz     :     0.003007
      dyz     :     0.005962
      dx2y2   :     0.006254
      dxy     :     0.010005
 23 H s       :     0.951857  s :     0.951857
      pz      :     0.014142  p :     0.024889
      px      :     0.004950
      py      :     0.005796
 24 H s       :     0.964118  s :     0.964118
      pz      :     0.005629  p :     0.023605
      px      :     0.010755
      py      :     0.007221
 25 C s       :     3.043157  s :     3.043157
      pz      :     0.995641  p :     2.991254
      px      :     0.996717
      py      :     0.998896
      dz2     :     0.011153  d :     0.039277
      dxz     :     0.004911
      dyz     :     0.008855
      dx2y2   :     0.004387
      dxy     :     0.009970
 26 H s       :     0.961261  s :     0.961261
      pz      :     0.005140  p :     0.024422
      px      :     0.010839
      py      :     0.008443
 27 H s       :     0.939353  s :     0.939353
      pz      :     0.004543  p :     0.021331
      px      :     0.011205
      py      :     0.005584
 28 C s       :     3.002334  s :     3.002334
      pz      :     0.973692  p :     3.017382
      px      :     1.010708
      py      :     1.032982
      dz2     :     0.007263  d :     0.029448
      dxz     :     0.004357
      dyz     :     0.007398
      dx2y2   :     0.002877
      dxy     :     0.007553
 29 H s       :     0.942663  s :     0.942663
      pz      :     0.005218  p :     0.025799
      px      :     0.010301
      py      :     0.010279
 30 H s       :     0.949702  s :     0.949702
      pz      :     0.007364  p :     0.023279
      px      :     0.005447
      py      :     0.010468
 31 H s       :     0.945235  s :     0.945235
      pz      :     0.004638  p :     0.024040
      px      :     0.013231
      py      :     0.006171
 32 H s       :     0.932330  s :     0.932330
      pz      :     0.007398  p :     0.024737
      px      :     0.003550
      py      :     0.013790
 33 H s       :     0.891419  s :     0.891419
      pz      :     0.004830  p :     0.022830
      px      :     0.014062
      py      :     0.003938


                     *******************************
                     * LOEWDIN POPULATION ANALYSIS *
                     *******************************

----------------------
LOEWDIN ATOMIC CHARGES
----------------------
   0 S :    0.391442
   1 C :   -0.190913
   2 C :   -0.060758
   3 C :   -0.060153
   4 C :   -0.170525
   5 H :    0.022661
   6 C :   -0.034121
   7 H :    0.027752
   8 H :    0.028190
   9 C :   -0.033642
  10 H :    0.011516
  11 H :    0.033049
  12 C :   -0.070100
  13 H :    0.032515
  14 H :    0.022683
  15 H :    0.021569
  16 S :    0.363902
  17 C :   -0.179222
  18 C :   -0.080683
  19 C :   -0.060670
  20 C :   -0.167587
  21 H :    0.041138
  22 C :   -0.029086
  23 H :    0.027124
  24 H :    0.028602
  25 C :   -0.042994
  26 H :    0.015700
  27 H :    0.032095
  28 C :   -0.063164
  29 H :    0.024949
  30 H :    0.028074
  31 H :    0.020751
  32 H :    0.027774
  33 H :    0.042130

-------------------------------
LOEWDIN REDUCED ORBITAL CHARGES
-------------------------------
  0 S s       :     5.509627  s :     5.509627
      pz      :     3.543852  p :     9.968619
      px      :     3.373391
      py      :     3.051375
      dz2     :     0.017217  d :     0.130312
      dxz     :     0.014843
      dyz     :     0.028285
      dx2y2   :     0.022078
      dxy     :     0.047890
  1 C s       :     2.921814  s :     2.921814
      pz      :     1.091257  p :     3.186065
      px      :     1.034472
      py      :     1.060335
      dz2     :     0.008292  d :     0.083035
      dxz     :     0.014426
      dyz     :     0.010737
      dx2y2   :     0.021716
      dxy     :     0.027864
  2 C s       :     2.866528  s :     2.866528
      pz      :     1.004190  p :     3.087267
      px      :     1.045354
      py      :     1.037723
      dz2     :     0.012235  d :     0.106963
      dxz     :     0.016334
      dyz     :     0.015137
      dx2y2   :     0.031179
      dxy     :     0.032078
  3 C s       :     2.849831  s :     2.849831
      pz      :     1.026164  p :     3.114933
      px      :     1.054049
      py      :     1.034720
      dz2     :     0.008304  d :     0.095389
      dxz     :     0.017720
      dyz     :     0.015323
      dx2y2   :     0.028903
      dxy     :     0.025139
  4 C s       :     2.900606  s :     2.900606
      pz      :     1.048656  p :     3.161835
      px      :     1.090133
      py      :     1.023045
      dz2     :     0.012195  d :     0.108083
      dxz     :     0.018382
      dyz     :     0.016292
      dx2y2   :     0.023201
      dxy     :     0.038014
  5 H s       :     0.900602  s :     0.900602
      pz      :     0.026614  p :     0.076736
      px      :     0.023852
      py      :     0.026271
  6 C s       :     2.832216  s :     2.832216
      pz      :     1.036697  p :     3.118117
      px      :     1.005061
      py      :     1.076359
      dz2     :     0.014452  d :     0.083787
      dxz     :     0.022295
      dyz     :     0.015492
      dx2y2   :     0.018519
      dxy     :     0.013030
  7 H s       :     0.903386  s :     0.903386
      pz      :     0.031740  p :     0.068862
      px      :     0.017781
      py      :     0.019341
  8 H s       :     0.899464  s :     0.899464
      pz      :     0.019057  p :     0.072346
      px      :     0.016255
      py      :     0.037034
  9 C s       :     2.832779  s :     2.832779
      pz      :     1.034825  p :     3.114853
      px      :     1.006184
      py      :     1.073844
      dz2     :     0.009552  d :     0.086009
      dxz     :     0.020176
      dyz     :     0.022790
      dx2y2   :     0.022679
      dxy     :     0.010813
 10 H s       :     0.908150  s :     0.908150
      pz      :     0.023607  p :     0.080334
      px      :     0.018247
      py      :     0.038480
 11 H s       :     0.908730  s :     0.908730
      pz      :     0.021317  p :     0.058220
      px      :     0.013506
      py      :     0.023397
 12 C s       :     2.825951  s :     2.825951
      pz      :     1.064299  p :     3.171667
      px      :     1.015949
      py      :     1.091419
      dz2     :     0.007993  d :     0.072481
      dxz     :     0.021227
      dyz     :     0.015576
      dx2y2   :     0.019274
      dxy     :     0.008412
 13 H s       :     0.901361  s :     0.901361
      pz      :     0.028662  p :     0.066124
      px      :     0.023287
      py      :     0.014175
 14 H s       :     0.905211  s :     0.905211
      pz      :     0.019951  p :     0.072106
      px      :     0.014653
      py      :     0.037501
 15 H s       :     0.908028  s :     0.908028
      pz      :     0.029537  p :     0.070403
      px      :     0.018347
      py      :     0.022518
 16 S s       :     5.532867  s :     5.532867
      pz      :     3.640878  p :     9.982441
      px      :     3.081381
      py      :     3.260182
      dz2     :     0.014068  d :     0.120790
      dxz     :     0.018435
      dyz     :     0.017075
      dx2y2   :     0.052269
      dxy     :     0.018942
 17 C s       :     2.948377  s :     2.948377
      pz      :     1.065344  p :     3.151992
      px      :     1.077406
      py      :     1.009242
      dz2     :     0.007603  d :     0.078853
      dxz     :     0.010465
      dyz     :     0.010819
      dx2y2   :     0.032345
      dxy     :     0.017621
 18 C s       :     2.882767  s :     2.882767
      pz      :     1.022019  p :     3.105904
      px      :     1.049216
      py      :     1.034669
      dz2     :     0.006615  d :     0.092012
      dxz     :     0.021063
      dyz     :     0.005999
      dx2y2   :     0.030397
      dxy     :     0.027938
 19 C s       :     2.865808  s :     2.865808
      pz      :     0.998044  p :     3.089759
      px      :     1.034939
      py      :     1.056776
      dz2     :     0.009235  d :     0.105103
      dxz     :     0.013520
      dyz     :     0.015623
      dx2y2   :     0.033186
      dxy     :     0.033539
 20 C s       :     2.905830  s :     2.905830
      pz      :     1.082854  p :     3.156676
      px      :     0.983895
      py      :     1.089926
      dz2     :     0.008493  d :     0.105081
      dxz     :     0.011266
      dyz     :     0.017882
      dx2y2   :     0.039782
      dxy     :     0.027657
 21 H s       :     0.898338  s :     0.898338
      pz      :     0.013964  p :     0.060523
      px      :     0.008486
      py      :     0.038073
 22 C s       :     2.818946  s :     2.818946
      pz      :     1.066272  p :     3.119015
      px      :     1.004772
      py      :     1.047971
      dz2     :     0.028607  d :     0.091126
      dxz     :     0.006025
      dyz     :     0.015762
      dx2y2   :     0.015368
      dxy     :     0.025364
 23 H s       :     0.898118  s :     0.898118
      pz      :     0.041101  p :     0.074758
      px      :     0.015005
      py      :     0.018652
 24 H s       :     0.902810  s :     0.902810
      pz      :     0.015302  p :     0.068588
      px      :     0.032088
      py      :     0.021198
 25 C s       :     2.821272  s :     2.821272
      pz      :     1.032479  p :     3.125525
      px      :     1.052364
      py      :     1.040682
      dz2     :     0.027650  d :     0.096197
      dxz     :     0.010339
      dyz     :     0.021553
      dx2y2   :     0.011136
      dxy     :     0.025520
 26 H s       :     0.911811  s :     0.911811
      pz      :     0.016769  p :     0.072489
      px      :     0.030904
      py      :     0.024816
 27 H s       :     0.905896  s :     0.905896
      pz      :     0.014467  p :     0.062009
      px      :     0.030782
      py      :     0.016761
 28 C s       :     2.826030  s :     2.826030
      pz      :     1.024178  p :     3.162263
      px      :     1.063215
      py      :     1.074870
      dz2     :     0.020352  d :     0.074870
      dxz     :     0.009170
      dyz     :     0.018416
      dx2y2   :     0.008089
      dxy     :     0.018843
 29 H s       :     0.903436  s :     0.903436
      pz      :     0.016186  p :     0.071615
      px      :     0.028113
      py      :     0.027316
 30 H s       :     0.907318  s :     0.907318
      pz      :     0.021996  p :     0.064608
      px      :     0.014603
      py      :     0.028008
 31 H s       :     0.910018  s :     0.910018
      pz      :     0.015216  p :     0.069230
      px      :     0.036196
      py      :     0.017819
 32 H s       :     0.894536  s :     0.894536
      pz      :     0.023113  p :     0.077690
      px      :     0.013514
      py      :     0.041063
 33 H s       :     0.887629  s :     0.887629
      pz      :     0.015417  p :     0.070240
      px      :     0.040696
      py      :     0.014127


                      *****************************
                      * MAYER POPULATION ANALYSIS *
                      *****************************

  NA   - Mulliken gross atomic population
  ZA   - Total nuclear charge
  QA   - Mulliken gross atomic charge
  VA   - Mayer's total valence
  BVA  - Mayer's bonded valence
  FA   - Mayer's free valence

  ATOM       NA         ZA         QA         VA         BVA        FA
  0 S     15.9131    16.0000     0.0869     2.4715     2.4715    -0.0000
  1 C      6.0864     6.0000    -0.0864     3.8579     3.8579    -0.0000
  2 C      6.0886     6.0000    -0.0886     4.0034     4.0034    -0.0000
  3 C      5.9831     6.0000     0.0169     3.9331     3.9331    -0.0000
  4 C      6.0930     6.0000    -0.0930     3.9403     3.9403    -0.0000
  5 H      1.0109     1.0000    -0.0109     1.0062     1.0062    -0.0000
  6 C      5.9552     6.0000     0.0448     3.9539     3.9539    -0.0000
  7 H      0.9855     1.0000     0.0145     0.9959     0.9959    -0.0000
  8 H      0.9815     1.0000     0.0185     0.9840     0.9840    -0.0000
  9 C      6.0469     6.0000    -0.0469     4.0720     4.0720    -0.0000
 10 H      0.9838     1.0000     0.0162     0.9799     0.9799    -0.0000
 11 H      0.9575     1.0000     0.0425     0.9762     0.9762    -0.0000
 12 C      6.0456     6.0000    -0.0456     4.0028     4.0028     0.0000
 13 H      0.9538     1.0000     0.0462     0.9855     0.9855     0.0000
 14 H      0.9793     1.0000     0.0207     0.9877     0.9877    -0.0000
 15 H      0.9880     1.0000     0.0120     0.9899     0.9899     0.0000
 16 S     15.9402    16.0000     0.0598     2.4628     2.4628     0.0000
 17 C      6.0970     6.0000    -0.0970     3.8479     3.8479    -0.0000
 18 C      6.0547     6.0000    -0.0547     3.9221     3.9221     0.0000
 19 C      6.0657     6.0000    -0.0657     4.0079     4.0079     0.0000
 20 C      6.0992     6.0000    -0.0992     3.9541     3.9541     0.0000
 21 H      0.9493     1.0000     0.0507     0.9914     0.9914    -0.0000
 22 C      5.9261     6.0000     0.0739     3.9906     3.9906    -0.0000
 23 H      0.9767     1.0000     0.0233     0.9843     0.9843     0.0000
 24 H      0.9877     1.0000     0.0123     0.9957     0.9957    -0.0000
 25 C      6.0737     6.0000    -0.0737     4.0987     4.0987     0.0000
 26 H      0.9857     1.0000     0.0143     0.9862     0.9862     0.0000
 27 H      0.9607     1.0000     0.0393     0.9753     0.9753    -0.0000
 28 C      6.0492     6.0000    -0.0492     3.9992     3.9992     0.0000
 29 H      0.9685     1.0000     0.0315     0.9966     0.9966     0.0000
 30 H      0.9730     1.0000     0.0270     0.9843     0.9843     0.0000
 31 H      0.9693     1.0000     0.0307     0.9902     0.9902     0.0000
 32 H      0.9571     1.0000     0.0429     1.0069     1.0069    -0.0000
 33 H      0.9142     1.0000     0.0858     0.9907     0.9907     0.0000

  Mayer bond orders larger than 0.100000
B(  0-S ,  1-C ) :   1.1316 B(  0-S ,  4-C ) :   1.1268 B(  1-C ,  2-C ) :   1.6327 
B(  1-C , 32-H ) :   0.9695 B(  2-C ,  3-C ) :   1.2195 B(  2-C ,  6-C ) :   1.0123 
B(  3-C ,  4-C ) :   1.6018 B(  3-C ,  5-H ) :   1.0057 B(  4-C , 20-C ) :   1.0734 
B(  6-C ,  7-H ) :   0.9506 B(  6-C ,  8-H ) :   0.9426 B(  6-C ,  9-C ) :   1.0498 
B(  9-C , 10-H ) :   0.9618 B(  9-C , 11-H ) :   0.9563 B(  9-C , 12-C ) :   1.0818 
B( 12-C , 13-H ) :   0.9753 B( 12-C , 14-H ) :   0.9744 B( 12-C , 15-H ) :   0.9721 
B( 16-S , 17-C ) :   1.1366 B( 16-S , 20-C ) :   1.1223 B( 17-C , 18-C ) :   1.6224 
B( 17-C , 20-C ) :   0.1017 B( 17-C , 33-H ) :   0.9655 B( 18-C , 19-C ) :   1.2208 
B( 18-C , 21-H ) :   0.9681 B( 19-C , 20-C ) :   1.6161 B( 19-C , 22-C ) :   1.0162 
B( 22-C , 23-H ) :   0.9364 B( 22-C , 24-H ) :   0.9450 B( 22-C , 25-C ) :   1.0826 
B( 25-C , 26-H ) :   0.9566 B( 25-C , 27-H ) :   0.9536 B( 25-C , 28-C ) :   1.0760 
B( 28-C , 29-H ) :   0.9751 B( 28-C , 30-H ) :   0.9739 B( 28-C , 31-H ) :   0.9754 


-------
TIMINGS
-------

Total SCF time: 0 days 0 hours 0 min 18 sec 

Total time                  ....      18.120 sec
Sum of individual times     ....      17.292 sec  ( 95.4%)

Fock matrix formation       ....      15.691 sec  ( 86.6%)
  XC integration            ....       1.339 sec  (  8.5% of F)
    Basis function eval.    ....       0.133 sec  (  9.9% of XC)
    Density eval.           ....       0.089 sec  (  6.7% of XC)
    XC-Functional eval.     ....       0.107 sec  (  8.0% of XC)
    XC-Potential eval.      ....       0.110 sec  (  8.2% of XC)
Diagonalization             ....       0.130 sec  (  0.7%)
Density matrix formation    ....       0.022 sec  (  0.1%)
Population analysis         ....       0.056 sec  (  0.3%)
Initial guess               ....       0.165 sec  (  0.9%)
Orbital Transformation      ....       0.000 sec  (  0.0%)
Orbital Orthonormalization  ....       0.000 sec  (  0.0%)
DIIS solution               ....       0.155 sec  (  0.9%)
SOSCF solution              ....       0.102 sec  (  0.6%)
Grid generation             ....       0.970 sec  (  5.4%)


-------------------------------------------------------------------------------
                          DFT DISPERSION CORRECTION                            
                                                                               
                              DFTD3 V3.1  Rev 1                                
                              USING zero damping                               
-------------------------------------------------------------------------------
The omegaB97X-D3 functional is recognized. Fit by Chai et al.
Active option DFTDOPT                   ...         3   

molecular C6(AA) [au] = 14172.890469 


            DFT-D V3
 parameters
 s6 scaling factor         :     1.0000 
 rs6 scaling factor        :     1.2810 
 s8 scaling factor         :     1.0000 
 rs8 scaling factor        :     1.0940 
 Damping factor alpha6     :    14.0000 
 Damping factor alpha8     :    16.0000 
 ad hoc parameters k1-k3   :    16.0000     1.3333    -4.0000 

 Edisp/kcal,au: -8.527533514296  -0.013589488218 
 E6   /kcal   :  -3.919109890 
 E8   /kcal   :  -4.608423625 
 % E8         :  54.041694669 

-------------------------   ----------------
Dispersion correction           -0.013589488
-------------------------   ----------------


-------------------------   --------------------
FINAL SINGLE POINT ENERGY     -1339.853427746983
-------------------------   --------------------


                            ***************************************
                            *     ORCA property calculations      *
                            ***************************************

                                    ---------------------
                                    Active property flags
                                    ---------------------
   (+) Dipole Moment


------------------------------------------------------------------------------
                       ORCA ELECTRIC PROPERTIES CALCULATION
------------------------------------------------------------------------------

Dipole Moment Calculation                       ... on
Quadrupole Moment Calculation                   ... off
Polarizability Calculation                      ... off
GBWName                                         ... config_1402.gbw
Electron density file                           ... config_1402.scfp
The origin for moment calculation is the CENTER OF MASS  = (-81.861587, 28.446959 51.974639)

-------------
DIPOLE MOMENT
-------------
                                X             Y             Z
Electronic contribution:     28.31507      -5.12344       2.70480
Nuclear contribution   :    -28.90648       5.40928      -2.47027
                        -----------------------------------------
Total Dipole Moment    :     -0.59141       0.28584       0.23453
                        -----------------------------------------
Magnitude (a.u.)       :      0.69748
Magnitude (Debye)      :      1.77285



--------------------
Rotational spectrum 
--------------------
 
Rotational constants in cm-1:     0.020257     0.007916     0.006088 
Rotational constants in MHz :   607.287606   237.326143   182.512365 

 Dipole components along the rotational axes: 
x,y,z [a.u.] :    -0.153100    -0.625785     0.267265 
x,y,z [Debye]:    -0.389150    -1.590618     0.679334 

 

Timings for individual modules:

Sum of individual times         ...       19.296 sec (=   0.322 min)
GTO integral calculation        ...        0.783 sec (=   0.013 min)   4.1 %
SCF iterations                  ...       18.514 sec (=   0.309 min)  95.9 %
                             ****ORCA TERMINATED NORMALLY****
TOTAL RUN TIME: 0 days 0 hours 0 minutes 19 seconds 987 msec
