
                                 *****************
                                 * O   R   C   A *
                                 *****************

           --- An Ab Initio, DFT and Semiempirical electronic structure package ---

                  #######################################################
                  #                        -***-                        #
                  #          Department of theory and spectroscopy      #
                  #               Directorship: Frank Neese             #
                  #        Max Planck Institute fuer Kohlenforschung    #
                  #                Kaiser Wilhelm Platz 1               #
                  #                 D-45470 Muelheim/Ruhr               #
                  #                      Germany                        #
                  #                                                     #
                  #                  All rights reserved                #
                  #                        -***-                        #
                  #######################################################


                         Program Version 4.2.1 -  RELEASE  -


 With contributions from (in alphabetic order):
   Daniel Aravena         : Magnetic Suceptibility
   Michael Atanasov       : Ab Initio Ligand Field Theory (pilot matlab implementation)
   Alexander A. Auer      : GIAO ZORA, VPT2
   Ute Becker             : Parallelization
   Giovanni Bistoni       : ED, misc. LED, open-shell LED, HFLD
   Martin Brehm           : Molecular dynamics
   Dmytro Bykov           : SCF Hessian
   Vijay G. Chilkuri      : MRCI spin determinant printing, contributions to CSF-ICE
   Dipayan Datta          : RHF DLPNO-CCSD density
   Achintya Kumar Dutta   : EOM-CC, STEOM-CC
   Dmitry Ganyushin       : Spin-Orbit,Spin-Spin,Magnetic field MRCI
   Miquel Garcia          : C-PCM Hessian, Gaussian charge scheme
   Yang Guo               : DLPNO-NEVPT2, CIM, IAO-localization
   Andreas Hansen         : Spin unrestricted coupled pair/coupled cluster methods
   Benjamin Helmich-Paris : CASSCF linear response (MC-RPA)
   Lee Huntington         : MR-EOM, pCC
   Robert Izsak           : Overlap fitted RIJCOSX, COSX-SCS-MP3, EOM
   Christian Kollmar      : KDIIS, OOCD, Brueckner-CCSD(T), CCSD density
   Simone Kossmann        : Meta GGA functionals, TD-DFT gradient, OOMP2, MP2 Hessian
   Martin Krupicka        : AUTO-CI
   Lucas Lang             : DCDCAS
   Dagmar Lenk            : GEPOL surface, SMD
   Dimitrios Liakos       : Extrapolation schemes; Compound Job, initial MDCI parallelization
   Dimitrios Manganas     : Further ROCIS development; embedding schemes
   Dimitrios Pantazis     : SARC Basis sets
   Taras Petrenko         : DFT Hessian,TD-DFT gradient, ASA, ECA, R-Raman, ABS, FL, XAS/XES, NRVS
   Peter Pinski           : DLPNO-MP2, DLPNO-MP2 Gradient
   Christoph Reimann      : Effective Core Potentials
   Marius Retegan         : Local ZFS, SOC
   Christoph Riplinger    : Optimizer, TS searches, QM/MM, DLPNO-CCSD(T), (RO)-DLPNO pert. Triples
   Tobias Risthaus        : Range-separated hybrids, TD-DFT gradient, RPA, STAB
   Michael Roemelt        : Original ROCIS implementation
   Masaaki Saitow         : Open-shell DLPNO-CCSD energy and density
   Barbara Sandhoefer     : DKH picture change effects
   Avijit Sen             : IP-ROCIS
   Kantharuban Sivalingam : CASSCF convergence, NEVPT2, FIC-MRCI
   Bernardo de Souza      : ESD, SOC TD-DFT
   Georgi Stoychev        : AutoAux, RI-MP2 NMR
   Willem Van den Heuvel  : Paramagnetic NMR
   Boris Wezisla          : Elementary symmetry handling
   Frank Wennmohs         : Technical directorship


 We gratefully acknowledge several colleagues who have allowed us to
 interface, adapt or use parts of their codes:
   Stefan Grimme, W. Hujo, H. Kruse,             : VdW corrections, initial TS optimization,
                  C. Bannwarth                     DFT functionals, gCP, sTDA/sTD-DF
   Ed Valeev, F. Pavosevic, A. Kumar             : LibInt (2-el integral package), F12 methods
   Garnet Chan, S. Sharma, J. Yang, R. Olivares  : DMRG
   Ulf Ekstrom                                   : XCFun DFT Library
   Mihaly Kallay                                 : mrcc  (arbitrary order and MRCC methods)
   Andreas Klamt, Michael Diedenhofen            : otool_cosmo (COSMO solvation model)
   Jiri Pittner, Ondrej Demel                    : Mk-CCSD
   Frank Weinhold                                : gennbo (NPA and NBO analysis)
   Christopher J. Cramer and Donald G. Truhlar   : smd solvation model
   Lars Goerigk                                  : TD-DFT with DH, B97 family of functionals
   V. Asgeirsson, H. Jonsson                     : NEB implementation
   FAccTs GmbH                                   : IRC, NEB, NEB-TS, Multilevel, MM, QM/MM, CI optimization
   S Lehtola, MJT Oliveira, MAL Marques          : LibXC Library


 Your calculation uses the libint2 library for the computation of 2-el integrals
 For citations please refer to: http://libint.valeyev.net

 Your ORCA version has been built with support for libXC version: 4.2.3
 For citations please refer to: https://tddft.org/programs/libxc/

 This ORCA versions uses:
   CBLAS   interface :  Fast vector & matrix operations
   LAPACKE interface :  Fast linear algebra routines
   SCALAPACK package :  Parallel linear algebra routines


Your calculation utilizes the atom-pairwise dispersion correction
with the zero-damping scheme (D30)
Cite in your paper:
S.Grimme, J.Antony, S.Ehrlich and H.Krieg, J.Chem.Phys., 132, (2010), 154104 
   

XCFun DFT library Copyright 2009-2010 Ulf Ekstrom and contributors.
See http://admol.org/xcfun for more information. This is free soft-
ware; see the source code for copying conditions. There is ABSOLUTELY
NO WARRANTY; not even for MERCHANTABILITY or FITNESS FOR A PARTICULAR
PURPOSE. For details see the documentation. Scientific users of this 
library should cite U. Ekstrom, L. Visscher, R. Bast, A. J. Thorvald-
sen and K. Ruud; J.Chem.Theor.Comp. 2010, DOI: 10.1021/ct100117s
XCFun Version 0.99 
----- Orbital basis set information -----
Your calculation utilizes the basis: def2-SVP
   F. Weigend and R. Ahlrichs, Phys. Chem. Chem. Phys. 7, 3297 (2005).

================================================================================
                                        WARNINGS
                       Please study these warnings very carefully!
================================================================================


INFO   : the flag for use of LIBINT has been found!

================================================================================
                                       INPUT FILE
================================================================================
NAME = config_191.inp
|  1> ! wB97X-D3 SP def2-SVP
|  2> %pal
|  3> nprocs 24
|  4> end
|  5> 
|  6> * xyz 0 1
|  7> S 	 -56.0336 	 -2.32521 	 -33.2733 	 
|  8> C 	 -56.3256 	 -0.739453 	 -33.9615 	 
|  9> C 	 -56.5523 	 0.255999 	 -33.0131 	 
| 10> C 	 -56.4223 	 -0.232234 	 -31.7218 	 
| 11> C 	 -56.0832 	 -1.57851 	 -31.6535 	 
| 12> H 	 -56.5521 	 0.369579 	 -30.8239 	 
| 13> C 	 -56.9342 	 1.67939 	 -33.2128 	 
| 14> H 	 -57.8797 	 1.87388 	 -32.6827 	 
| 15> H 	 -57.1436 	 1.79123 	 -34.2938 	 
| 16> C 	 -55.9326 	 2.69192 	 -32.6791 	 
| 17> H 	 -56.0101 	 2.67645 	 -31.5407 	 
| 18> H 	 -54.9399 	 2.36053 	 -32.9087 	 
| 19> C 	 -55.9024 	 4.05902 	 -33.2206 	 
| 20> H 	 -56.7973 	 4.69725 	 -33.1393 	 
| 21> H 	 -55.1883 	 4.5958 	 -32.6386 	 
| 22> H 	 -55.577 	 4.02572 	 -34.2891 	 
| 23> S 	 -56.7907 	 -3.92071 	 -30.4256 	 
| 24> C 	 -56.3088 	 -4.21217 	 -28.8027 	 
| 25> C 	 -55.6373 	 -3.17412 	 -28.1955 	 
| 26> C 	 -55.6211 	 -2.05607 	 -29.0671 	 
| 27> C 	 -55.9583 	 -2.36533 	 -30.3862 	 
| 28> H 	 -55.1925 	 -3.18802 	 -27.1725 	 
| 29> C 	 -55.1153 	 -0.685164 	 -28.5372 	 
| 30> H 	 -55.2115 	 0.0930088 	 -29.2734 	 
| 31> H 	 -54.0215 	 -0.823092 	 -28.3699 	 
| 32> C 	 -55.9202 	 -0.287966 	 -27.2883 	 
| 33> H 	 -55.737 	 -1.05449 	 -26.6122 	 
| 34> H 	 -57.0103 	 -0.26532 	 -27.5625 	 
| 35> C 	 -55.6703 	 1.04271 	 -26.6401 	 
| 36> H 	 -55.5741 	 1.89184 	 -27.3351 	 
| 37> H 	 -54.7254 	 0.913686 	 -26.1394 	 
| 38> H 	 -56.3835 	 1.33299 	 -25.9232 	 
| 39> H 	 -56.5279 	 -0.524412 	 -35.0286 	 
| 40> H 	 -56.4694 	 -5.23641 	 -28.4634 	 
| 41> *
| 42> 
| 43>                          ****END OF INPUT****
================================================================================

                       ****************************
                       * Single Point Calculation *
                       ****************************

---------------------------------
CARTESIAN COORDINATES (ANGSTROEM)
---------------------------------
  S    -56.033600   -2.325210  -33.273300
  C    -56.325600   -0.739453  -33.961500
  C    -56.552300    0.255999  -33.013100
  C    -56.422300   -0.232234  -31.721800
  C    -56.083200   -1.578510  -31.653500
  H    -56.552100    0.369579  -30.823900
  C    -56.934200    1.679390  -33.212800
  H    -57.879700    1.873880  -32.682700
  H    -57.143600    1.791230  -34.293800
  C    -55.932600    2.691920  -32.679100
  H    -56.010100    2.676450  -31.540700
  H    -54.939900    2.360530  -32.908700
  C    -55.902400    4.059020  -33.220600
  H    -56.797300    4.697250  -33.139300
  H    -55.188300    4.595800  -32.638600
  H    -55.577000    4.025720  -34.289100
  S    -56.790700   -3.920710  -30.425600
  C    -56.308800   -4.212170  -28.802700
  C    -55.637300   -3.174120  -28.195500
  C    -55.621100   -2.056070  -29.067100
  C    -55.958300   -2.365330  -30.386200
  H    -55.192500   -3.188020  -27.172500
  C    -55.115300   -0.685164  -28.537200
  H    -55.211500    0.093009  -29.273400
  H    -54.021500   -0.823092  -28.369900
  C    -55.920200   -0.287966  -27.288300
  H    -55.737000   -1.054490  -26.612200
  H    -57.010300   -0.265320  -27.562500
  C    -55.670300    1.042710  -26.640100
  H    -55.574100    1.891840  -27.335100
  H    -54.725400    0.913686  -26.139400
  H    -56.383500    1.332990  -25.923200
  H    -56.527900   -0.524412  -35.028600
  H    -56.469400   -5.236410  -28.463400

----------------------------
CARTESIAN COORDINATES (A.U.)
----------------------------
  NO LB      ZA    FRAG     MASS         X           Y           Z
   0 S    16.0000    0    32.060  -105.888158   -4.394010  -62.877425
   1 C     6.0000    0    12.011  -106.439958   -1.397364  -64.177934
   2 C     6.0000    0    12.011  -106.868359    0.483768  -62.385718
   3 C     6.0000    0    12.011  -106.622695   -0.438859  -59.945514
   4 C     6.0000    0    12.011  -105.981889   -2.982952  -59.816446
   5 H     1.0000    0     1.008  -106.867981    0.698403  -58.248729
   6 C     6.0000    0    12.011  -107.590046    3.173587  -62.763096
   7 H     1.0000    0     1.008  -109.376782    3.541120  -61.761352
   8 H     1.0000    0     1.008  -107.985754    3.384934  -64.805890
   9 C     6.0000    0    12.011  -105.697296    5.086992  -61.754549
  10 H     1.0000    0     1.008  -105.843750    5.057758  -59.603285
  11 H     1.0000    0     1.008  -103.821365    4.460755  -62.188430
  12 C     6.0000    0    12.011  -105.640226    7.670436  -62.777836
  13 H     1.0000    0     1.008  -107.331342    8.876516  -62.624201
  14 H     1.0000    0     1.008  -104.290773    8.684803  -61.678015
  15 H     1.0000    0     1.008  -105.025309    7.607508  -64.797008
  16 S    16.0000    0    32.060  -107.318870   -7.409068  -57.496051
  17 C     6.0000    0    12.011  -106.408211   -7.959848  -54.429215
  18 C     6.0000    0    12.011  -105.139260   -5.998218  -53.281773
  19 C     6.0000    0    12.011  -105.108646   -3.885409  -54.928859
  20 C     6.0000    0    12.011  -105.745862   -4.469826  -57.421596
  21 H     1.0000    0     1.008  -104.298710   -6.024485  -51.348583
  22 C     6.0000    0    12.011  -104.152823   -1.294772  -53.927493
  23 H     1.0000    0     1.008  -104.334614    0.175761  -55.318709
  24 H     1.0000    0     1.008  -102.085840   -1.555418  -53.611341
  25 C     6.0000    0    12.011  -105.673863   -0.544177  -51.567414
  26 H     1.0000    0     1.008  -105.327666   -1.992697  -50.289770
  27 H     1.0000    0     1.008  -107.733854   -0.501382  -52.085577
  28 C     6.0000    0    12.011  -105.201621    1.970436  -50.342493
  29 H     1.0000    0     1.008  -105.019829    3.575059  -51.655853
  30 H     1.0000    0     1.008  -103.416019    1.726616  -49.396307
  31 H     1.0000    0     1.008  -106.549373    2.518986  -48.987749
  32 H     1.0000    0     1.008  -106.822250   -0.990995  -66.194461
  33 H     1.0000    0     1.008  -106.711701   -9.895381  -53.788031

--------------------------------
INTERNAL COORDINATES (ANGSTROEM)
--------------------------------
 S      0   0   0     0.000000000000     0.00000000     0.00000000
 C      1   0   0     1.753142465132     0.00000000     0.00000000
 C      2   1   0     1.393477712166   113.95916429     0.00000000
 C      3   2   1     1.386624373177   111.53253300     3.22623077
 C      4   3   2     1.390004592861   114.18317331     0.79281246
 H      4   3   2     1.088692489626   124.21073866   179.76607983
 C      3   2   1     1.487201949596   129.35329200   185.21767650
 H      7   3   2     1.101273181413   108.95709381   121.99196772
 H      7   3   2     1.106759931331   106.04872134     7.30085351
 C      7   3   2     1.520938937269   114.89374468   240.97249860
 H     10   7   3     1.141139838451   107.23608714   287.06376353
 H     10   7   3     1.071442383939   109.21071928    41.28414026
 C     10   7   3     1.470746987078   120.20788308   157.07981980
 H     13  10   7     1.102176588801   119.63184365    60.30909923
 H     13  10   7     1.066206161303   106.30478974   175.17606706
 H     13  10   7     1.117446329807   109.28896814   293.84895191
 S      5   4   3     2.737552830540   141.96706309   228.54941925
 C     17   5   4     1.717841946047   119.76295794   282.06764410
 C     18  17   5     1.377371370582   115.17408635     3.43082969
 C     19  18  17     1.417739328121   109.20121378     5.09321622
 C     20  19  18     1.396198552356   113.79053548   344.78766865
 H     19  18  17     1.115602639832   126.10282852   183.77781825
 C     20  19  18     1.554352247991   119.31905170   170.70288685
 H     23  20  19     1.075545343842   112.06555181   183.64347260
 H     23  20  19     1.115083792001   105.14434381    68.64288481
 C     23  20  19     1.537979671909   109.53073683   304.48351703
 H     26  23  20     1.038379743916   104.22606283    60.21249049
 H     26  23  20     1.124284879964   108.33613063   302.91037608
 C     26  23  20     1.501103549718   119.50263529   183.65020448
 H     29  26  23     1.101499521970   115.17883149    43.79877154
 H     29  26  23     1.077118235189   103.92112127   285.87267750
 H     29  26  23     1.052075248449   115.21252704   167.78458929
 H      2   1   3     1.107190287024   125.76409813   192.18023220
 H     18  17   5     1.090864073842   114.32119931   191.02681467

---------------------------
INTERNAL COORDINATES (A.U.)
---------------------------
 S      0   0   0     0.000000000000     0.00000000     0.00000000
 C      1   0   0     3.312959132847     0.00000000     0.00000000
 C      2   1   0     2.633291249717   113.95916429     0.00000000
 C      3   2   1     2.620340315925   111.53253300     3.22623077
 C      4   3   2     2.626728005401   114.18317331     0.79281246
 H      4   3   2     2.057330649451   124.21073866   179.76607983
 C      3   2   1     2.810404390569   129.35329200   185.21767650
 H      7   3   2     2.081104711503   108.95709381   121.99196772
 H      7   3   2     2.091473166213   106.04872134     7.30085351
 C      7   3   2     2.874158057855   114.89374468   240.97249860
 H     10   7   3     2.156441775180   107.23608714   287.06376353
 H     10   7   3     2.024732673920   109.21071928    41.28414026
 C     10   7   3     2.779309017868   120.20788308   157.07981980
 H     13  10   7     2.082811904053   119.63184365    60.30909923
 H     13  10   7     2.014837647162   106.30478974   175.17606706
 H     13  10   7     2.111667532691   109.28896814   293.84895191
 S      5   4   3     5.173225126862   141.96706309   228.54941925
 C     17   5   4     3.246250819392   119.76295794   282.06764410
 C     18  17   5     2.602854675104   115.17408635     3.43082969
 C     19  18  17     2.679139059438   109.20121378     5.09321622
 C     20  19  18     2.638432892529   113.79053548   344.78766865
 H     19  18  17     2.108183463562   126.10282852   183.77781825
 C     20  19  18     2.937300064349   119.31905170   170.70288685
 H     23  20  19     2.032486144475   112.06555181   183.64347260
 H     23  20  19     2.107202983257   105.14434381    68.64288481
 C     23  20  19     2.906360379445   109.53073683   304.48351703
 H     26  23  20     1.962253339013   104.22606283    60.21249049
 H     26  23  20     2.124590519641   108.33613063   302.91037608
 C     26  23  20     2.836674607624   119.50263529   183.65020448
 H     29  26  23     2.081532433168   115.17883149    43.79877154
 H     29  26  23     2.035458478359   103.92112127   285.87267750
 H     29  26  23     1.988134091847   115.21252704   167.78458929
 H      2   1   3     2.092286420614   125.76409813   192.18023220
 H     18  17   5     2.061434348896   114.32119931   191.02681467

---------------------
BASIS SET INFORMATION
---------------------
There are 3 groups of distinct atoms

 Group   1 Type S   : 10s7p1d contracted to 4s3p1d pattern {5311/511/1}
 Group   2 Type C   : 7s4p1d contracted to 3s2p1d pattern {511/31/1}
 Group   3 Type H   : 4s1p contracted to 2s1p pattern {31/1}

Atom   0S    basis set group =>   1
Atom   1C    basis set group =>   2
Atom   2C    basis set group =>   2
Atom   3C    basis set group =>   2
Atom   4C    basis set group =>   2
Atom   5H    basis set group =>   3
Atom   6C    basis set group =>   2
Atom   7H    basis set group =>   3
Atom   8H    basis set group =>   3
Atom   9C    basis set group =>   2
Atom  10H    basis set group =>   3
Atom  11H    basis set group =>   3
Atom  12C    basis set group =>   2
Atom  13H    basis set group =>   3
Atom  14H    basis set group =>   3
Atom  15H    basis set group =>   3
Atom  16S    basis set group =>   1
Atom  17C    basis set group =>   2
Atom  18C    basis set group =>   2
Atom  19C    basis set group =>   2
Atom  20C    basis set group =>   2
Atom  21H    basis set group =>   3
Atom  22C    basis set group =>   2
Atom  23H    basis set group =>   3
Atom  24H    basis set group =>   3
Atom  25C    basis set group =>   2
Atom  26H    basis set group =>   3
Atom  27H    basis set group =>   3
Atom  28C    basis set group =>   2
Atom  29H    basis set group =>   3
Atom  30H    basis set group =>   3
Atom  31H    basis set group =>   3
Atom  32H    basis set group =>   3
Atom  33H    basis set group =>   3


           ************************************************************
           *        Program running with 24 parallel MPI-processes    *
           *              working on a common directory               *
           ************************************************************
------------------------------------------------------------------------------
                           ORCA GTO INTEGRAL CALCULATION
------------------------------------------------------------------------------

                         BASIS SET STATISTICS AND STARTUP INFO

 # of primitive gaussian shells          ...  294
 # of primitive gaussian functions       ...  534
 # of contracted shells                  ...  154
 # of contracted basis functions         ...  322
 Highest angular momentum                ...    2
 Maximum contraction depth               ...    5
 Integral package used                   ... LIBINT
 Integral threshhold            Thresh   ...  1.000e-10
 Primitive cut-off              TCut     ...  1.000e-11


------------------------------ INTEGRAL EVALUATION ----------------------------


 * One electron integrals 
 Pre-screening matrix                    ... done
 Shell pair data                         ... done (   0.003 sec)



           ************************************************************
           *        Program running with 24 parallel MPI-processes    *
           *              working on a common directory               *
           ************************************************************
-------------------------------------------------------------------------------
                                 ORCA SCF
-------------------------------------------------------------------------------

------------
SCF SETTINGS
------------
Hamiltonian:
 Density Functional     Method          .... DFT(GTOs)
 Exchange Functional    Exchange        .... WB97X-D3
 Correlation Functional Correlation     .... WB97X-D3
 Gradients option       PostSCFGGA      .... off
 Hybrid DFT is turned on
   Fraction HF Exchange ScalHFX         ....  0.195728
   Scaling of DF-GGA-X  ScalDFX         ....  0.000000
   Scaling of DF-GGA-C  ScalDFC         ....  1.000000
   Scaling of DF-LDA-C  ScalLDAC        ....  1.000000
   Perturbative correction              ....  0.000000
   Density functional embedding theory  .... OFF
 Long-range corrected/Screened/Range-Separated Hybrid DFT is turned on
   Amount of maximum screened exact exchange              ....  0.804272
   Range separation parameter mu (erf(mu*r12)/r12)        ....  0.250000


General Settings:
 Integral files         IntName         .... config_191
 Hartree-Fock type      HFTyp           .... RHF
 Total Charge           Charge          ....    0
 Multiplicity           Mult            ....    1
 Number of Electrons    NEL             ....  134
 Basis Dimension        Dim             ....  322
 Nuclear Repulsion      ENuc            ....   1273.0624961816 Eh

Convergence Acceleration:
 DIIS                   CNVDIIS         .... on
   Start iteration      DIISMaxIt       ....    12
   Startup error        DIISStart       ....  0.200000
   # of expansion vecs  DIISMaxEq       ....     5
   Bias factor          DIISBfac        ....   1.050
   Max. coefficient     DIISMaxC        ....  10.000
 Newton-Raphson         CNVNR           .... off
 SOSCF                  CNVSOSCF        .... on
   Start iteration      SOSCFMaxIt      ....   150
   Startup grad/error   SOSCFStart      ....  0.003300
 Level Shifting         CNVShift        .... on
   Level shift para.    LevelShift      ....    0.2500
   Turn off err/grad.   ShiftErr        ....    0.0010
 Zerner damping         CNVZerner       .... off
 Static damping         CNVDamp         .... on
   Fraction old density DampFac         ....    0.7000
   Max. Damping (<1)    DampMax         ....    0.9800
   Min. Damping (>=0)   DampMin         ....    0.0000
   Turn off err/grad.   DampErr         ....    0.1000
 Fernandez-Rico         CNVRico         .... off

SCF Procedure:
 Maximum # iterations   MaxIter         ....   125
 SCF integral mode      SCFMode         .... Direct
   Integral package                     .... LIBINT
 Reset frequency        DirectResetFreq ....    20
 Integral Threshold     Thresh          ....  1.000e-10 Eh
 Primitive CutOff       TCut            ....  1.000e-11 Eh

Convergence Tolerance:
 Convergence Check Mode ConvCheckMode   .... Total+1el-Energy
 Convergence forced     ConvForced      .... 0
 Energy Change          TolE            ....  1.000e-06 Eh
 1-El. energy change                    ....  1.000e-03 Eh
 Orbital Gradient       TolG            ....  5.000e-05
 Orbital Rotation angle TolX            ....  5.000e-05
 DIIS Error             TolErr          ....  1.000e-06


Diagonalization of the overlap matrix:
Smallest eigenvalue                        ... 5.868e-04
Time for diagonalization                   ...    0.015 sec
Threshold for overlap eigenvalues          ... 1.000e-08
Number of eigenvalues below threshold      ... 0
Time for construction of square roots      ...    0.026 sec
Total time needed                          ...    0.041 sec

-------------------
DFT GRID GENERATION
-------------------

General Integration Accuracy     IntAcc      ...  4.340
Radial Grid Type                 RadialGrid  ... Gauss-Chebyshev
Angular Grid (max. acc.)         AngularGrid ... Lebedev-110
Angular grid pruning method      GridPruning ... 3 (G Style)
Weight generation scheme         WeightScheme... Becke
Basis function cutoff            BFCut       ...    1.0000e-10
Integration weight cutoff        WCut        ...    1.0000e-14
Grids for H and He will be reduced by one unit

# of grid points (after initial pruning)     ...  41088 (   0.0 sec)
# of grid points (after weights+screening)   ...  37046 (   0.0 sec)
nearest neighbour list constructed           ...    0.0 sec
Grid point re-assignment to atoms done       ...    0.0 sec
Grid point division into batches done        ...    0.0 sec
Reduced shell lists constructed in    0.1 sec

Total number of grid points                  ...    37046
Total number of batches                      ...      597
Average number of points per batch           ...       62
Average number of grid points per atom       ...     1090
Average number of shells per batch           ...    63.35 (41.13%)
Average number of basis functions per batch  ...   126.81 (39.38%)
Average number of large shells per batch     ...    40.35 (63.69%)
Average number of large basis fcns per batch ...    84.88 (66.94%)
Maximum spatial batch extension              ...  24.88, 17.25, 12.03 au
Average spatial batch extension              ...   0.19,  0.19,  0.18 au

Time for grid setup =    0.149 sec

------------------------------
INITIAL GUESS: MODEL POTENTIAL
------------------------------
Loading Hartree-Fock densities                     ... done
Calculating cut-offs                               ... done
Setting up the integral package                    ... done
Initializing the effective Hamiltonian             ... done
Starting the Coulomb interaction                   ... done (   0.0 sec)
Reading the grid                                   ... done
Mapping shells                                     ... done
Starting the XC term evaluation                    ... done (   0.0 sec)
  promolecular density results
     # of electrons  =    134.001576107
     EX              =   -126.740671267
     EC              =     -4.624145124
     EX+EC           =   -131.364816391
Transforming the Hamiltonian                       ... done (   0.0 sec)
Diagonalizing the Hamiltonian                      ... done (   0.0 sec)
Back transforming the eigenvectors                 ... done (   0.0 sec)
Now organizing SCF variables                       ... done
                      ------------------
                      INITIAL GUESS DONE (   0.3 sec)
                      ------------------
--------------
SCF ITERATIONS
--------------
ITER       Energy         Delta-E        Max-DP      RMS-DP      [F,P]     Damp
               ***  Starting incremental Fock matrix formation  ***
  0  -1339.3940537442   0.000000000000 0.06636653  0.00163333  0.1675360 0.7000
  1  -1339.5942892835  -0.200235539288 0.04464300  0.00118743  0.1008868 0.7000
                               ***Turning on DIIS***
  2  -1339.6897335703  -0.095444286750 0.09660647  0.00221189  0.0518873 0.0000
  3  -1339.8323993124  -0.142665742097 0.04427697  0.00100052  0.0420291 0.0000
  4  -1339.8645372456  -0.032137933193 0.00860430  0.00021445  0.0086238 0.0000
                      *** Initiating the SOSCF procedure ***
                           *** Shutting down DIIS ***
                      *** Re-Reading the Fockian *** 
                      *** Removing any level shift *** 
ITER      Energy       Delta-E        Grad      Rot      Max-DP    RMS-DP
  5  -1339.86558445  -0.0010472094  0.001856  0.001856  0.003114  0.000102
               *** Restarting incremental Fock matrix formation ***
  6  -1339.86580121  -0.0002167557  0.001499  0.004161  0.002856  0.000068
  7  -1339.86587205  -0.0000708381  0.001044  0.006027  0.004069  0.000066
  8  -1339.86589061  -0.0000185608  0.000382  0.001025  0.000865  0.000021
  9  -1339.86589610  -0.0000054902  0.000140  0.000382  0.000340  0.000009
 10  -1339.86589652  -0.0000004251  0.000076  0.000274  0.000176  0.000004
                 **** Energy Check signals convergence ****
              ***Rediagonalizing the Fockian in SOSCF/NRSCF***

               *****************************************************
               *                     SUCCESS                       *
               *           SCF CONVERGED AFTER  11 CYCLES          *
               *****************************************************

Setting up the final grid:

General Integration Accuracy     IntAcc      ...  4.670
Radial Grid Type                 RadialGrid  ... Gauss-Chebyshev
Angular Grid (max. acc.)         AngularGrid ... Lebedev-302
Angular grid pruning method      GridPruning ... 3 (G Style)
Weight generation scheme         WeightScheme... Becke
Basis function cutoff            BFCut       ...    1.0000e-10
Integration weight cutoff        WCut        ...    1.0000e-14
Grids for H and He will be reduced by one unit

# of grid points (after initial pruning)     ... 161752 (   0.0 sec)
# of grid points (after weights+screening)   ... 142944 (   0.1 sec)
nearest neighbour list constructed           ...    0.0 sec
Grid point re-assignment to atoms done       ...    0.0 sec
Grid point division into batches done        ...    0.5 sec
Reduced shell lists constructed in    0.5 sec

Total number of grid points                  ...   142944
Total number of batches                      ...     2253
Average number of points per batch           ...       63
Average number of grid points per atom       ...     4204
Average number of shells per batch           ...    57.57 (37.38%)
Average number of basis functions per batch  ...   115.21 (35.78%)
Average number of large shells per batch     ...    35.01 (60.82%)
Average number of large basis fcns per batch ...    73.24 (63.57%)
Maximum spatial batch extension              ...  17.15, 13.02, 11.84 au
Average spatial batch extension              ...   0.14,  0.12,  0.12 au

Final grid set up in    0.9 sec
Final integration                            ... done (   0.2 sec)
Change in XC energy                          ...     0.008126218
Integrated number of electrons               ...   133.999942086
Previous integrated no of electrons          ...   134.002419676

----------------
TOTAL SCF ENERGY
----------------

Total Energy       :        -1339.85777062 Eh          -36459.38350 eV

Components:
Nuclear Repulsion  :         1273.06249618 Eh           34641.79168 eV
Electronic Energy  :        -2612.92026680 Eh          -71101.17517 eV
One Electron Energy:        -4362.62989055 Eh         -118713.19458 eV
Two Electron Energy:         1749.70962375 Eh           47612.01941 eV

Virial components:
Potential Energy   :        -2671.47272157 Eh          -72694.46847 eV
Kinetic Energy     :         1331.61495095 Eh           36235.08497 eV
Virial Ratio       :            2.00619009


DFT components:
N(Alpha)           :       66.999971042817 electrons
N(Beta)            :       66.999971042817 electrons
N(Total)           :      133.999942085635 electrons
E(XC)              :      -94.273691979465 Eh       
DFET-embed. en.    :        0.000000000000 Eh       

---------------
SCF CONVERGENCE
---------------

  Last Energy change         ...   -3.0864e-07  Tolerance :   1.0000e-06
  Last MAX-Density change    ...    3.3096e-05  Tolerance :   1.0000e-05
  Last RMS-Density change    ...    8.2321e-07  Tolerance :   1.0000e-06
  Last Orbital Gradient      ...    9.0739e-06  Tolerance :   5.0000e-05
  Last Orbital Rotation      ...    2.4603e-05  Tolerance :   5.0000e-05

             **** THE GBW FILE WAS UPDATED (config_191.gbw) ****
             **** DENSITY FILE WAS UPDATED (config_191.scfp) ****
             **** ENERGY FILE WAS UPDATED (config_191.en.tmp) ****
             **** THE GBW FILE WAS UPDATED (config_191.gbw) ****
             **** DENSITY FILE WAS UPDATED (config_191.scfp) ****
----------------
ORBITAL ENERGIES
----------------

  NO   OCC          E(Eh)            E(eV) 
   0   2.0000     -88.972956     -2421.0772 
   1   2.0000     -88.961972     -2420.7783 
   2   2.0000     -10.333691      -281.1940 
   3   2.0000     -10.328366      -281.0491 
   4   2.0000     -10.315654      -280.7032 
   5   2.0000     -10.315628      -280.7025 
   6   2.0000     -10.306153      -280.4447 
   7   2.0000     -10.298567      -280.2383 
   8   2.0000     -10.295679      -280.1597 
   9   2.0000     -10.294575      -280.1296 
  10   2.0000     -10.291695      -280.0512 
  11   2.0000     -10.288084      -279.9530 
  12   2.0000     -10.286643      -279.9138 
  13   2.0000     -10.283571      -279.8302 
  14   2.0000     -10.278236      -279.6850 
  15   2.0000     -10.273632      -279.5597 
  16   2.0000      -8.086548      -220.0462 
  17   2.0000      -8.077619      -219.8032 
  18   2.0000      -6.045156      -164.4971 
  19   2.0000      -6.041340      -164.3932 
  20   2.0000      -6.037163      -164.2796 
  21   2.0000      -6.035927      -164.2459 
  22   2.0000      -6.032168      -164.1436 
  23   2.0000      -6.028371      -164.0403 
  24   2.0000      -1.005337       -27.3566 
  25   2.0000      -0.986119       -26.8337 
  26   2.0000      -0.919137       -25.0110 
  27   2.0000      -0.912467       -24.8295 
  28   2.0000      -0.868024       -23.6201 
  29   2.0000      -0.857178       -23.3250 
  30   2.0000      -0.852500       -23.1977 
  31   2.0000      -0.811983       -22.0952 
  32   2.0000      -0.786837       -21.4109 
  33   2.0000      -0.773220       -21.0404 
  34   2.0000      -0.704025       -19.1575 
  35   2.0000      -0.695744       -18.9321 
  36   2.0000      -0.689690       -18.7674 
  37   2.0000      -0.658717       -17.9246 
  38   2.0000      -0.633597       -17.2410 
  39   2.0000      -0.624550       -16.9949 
  40   2.0000      -0.600722       -16.3465 
  41   2.0000      -0.577124       -15.7043 
  42   2.0000      -0.571620       -15.5546 
  43   2.0000      -0.558327       -15.1929 
  44   2.0000      -0.529101       -14.3976 
  45   2.0000      -0.525480       -14.2990 
  46   2.0000      -0.521088       -14.1795 
  47   2.0000      -0.512516       -13.9463 
  48   2.0000      -0.508254       -13.8303 
  49   2.0000      -0.494112       -13.4455 
  50   2.0000      -0.487535       -13.2665 
  51   2.0000      -0.481800       -13.1104 
  52   2.0000      -0.475231       -12.9317 
  53   2.0000      -0.469817       -12.7844 
  54   2.0000      -0.462015       -12.5721 
  55   2.0000      -0.457046       -12.4369 
  56   2.0000      -0.445893       -12.1334 
  57   2.0000      -0.434088       -11.8121 
  58   2.0000      -0.430974       -11.7274 
  59   2.0000      -0.427020       -11.6198 
  60   2.0000      -0.423478       -11.5234 
  61   2.0000      -0.413670       -11.2565 
  62   2.0000      -0.410359       -11.1664 
  63   2.0000      -0.350284        -9.5317 
  64   2.0000      -0.335001        -9.1158 
  65   2.0000      -0.330011        -8.9800 
  66   2.0000      -0.282786        -7.6950 
  67   0.0000       0.025327         0.6892 
  68   0.0000       0.074248         2.0204 
  69   0.0000       0.102150         2.7796 
  70   0.0000       0.123240         3.3535 
  71   0.0000       0.124110         3.3772 
  72   0.0000       0.133171         3.6238 
  73   0.0000       0.145475         3.9586 
  74   0.0000       0.155518         4.2319 
  75   0.0000       0.160137         4.3575 
  76   0.0000       0.166468         4.5298 
  77   0.0000       0.175585         4.7779 
  78   0.0000       0.189131         5.1465 
  79   0.0000       0.197043         5.3618 
  80   0.0000       0.199076         5.4171 
  81   0.0000       0.205196         5.5837 
  82   0.0000       0.211248         5.7484 
  83   0.0000       0.212271         5.7762 
  84   0.0000       0.225149         6.1266 
  85   0.0000       0.230391         6.2693 
  86   0.0000       0.234872         6.3912 
  87   0.0000       0.243562         6.6277 
  88   0.0000       0.246867         6.7176 
  89   0.0000       0.254509         6.9255 
  90   0.0000       0.264373         7.1940 
  91   0.0000       0.274735         7.4759 
  92   0.0000       0.278689         7.5835 
  93   0.0000       0.301998         8.2178 
  94   0.0000       0.313103         8.5200 
  95   0.0000       0.323036         8.7903 
  96   0.0000       0.335973         9.1423 
  97   0.0000       0.345853         9.4111 
  98   0.0000       0.347463         9.4549 
  99   0.0000       0.361953         9.8492 
 100   0.0000       0.371516        10.1095 
 101   0.0000       0.391656        10.6575 
 102   0.0000       0.411435        11.1957 
 103   0.0000       0.419819        11.4239 
 104   0.0000       0.428238        11.6530 
 105   0.0000       0.443086        12.0570 
 106   0.0000       0.463980        12.6256 
 107   0.0000       0.474539        12.9128 
 108   0.0000       0.484761        13.1910 
 109   0.0000       0.501282        13.6406 
 110   0.0000       0.506360        13.7788 
 111   0.0000       0.512548        13.9471 
 112   0.0000       0.514202        13.9921 
 113   0.0000       0.519797        14.1444 
 114   0.0000       0.529053        14.3963 
 115   0.0000       0.536779        14.6065 
 116   0.0000       0.550869        14.9899 
 117   0.0000       0.557631        15.1739 
 118   0.0000       0.564181        15.3521 
 119   0.0000       0.576019        15.6743 
 120   0.0000       0.581362        15.8197 
 121   0.0000       0.589544        16.0423 
 122   0.0000       0.601414        16.3653 
 123   0.0000       0.611718        16.6457 
 124   0.0000       0.613795        16.7022 
 125   0.0000       0.626725        17.0541 
 126   0.0000       0.638794        17.3825 
 127   0.0000       0.644954        17.5501 
 128   0.0000       0.645880        17.5753 
 129   0.0000       0.656890        17.8749 
 130   0.0000       0.663107        18.0441 
 131   0.0000       0.670408        18.2427 
 132   0.0000       0.675937        18.3932 
 133   0.0000       0.695319        18.9206 
 134   0.0000       0.704074        19.1588 
 135   0.0000       0.711584        19.3632 
 136   0.0000       0.716108        19.4863 
 137   0.0000       0.724027        19.7018 
 138   0.0000       0.726595        19.7717 
 139   0.0000       0.736427        20.0392 
 140   0.0000       0.746571        20.3152 
 141   0.0000       0.749236        20.3878 
 142   0.0000       0.755308        20.5530 
 143   0.0000       0.755679        20.5631 
 144   0.0000       0.759496        20.6669 
 145   0.0000       0.767475        20.8841 
 146   0.0000       0.774536        21.0762 
 147   0.0000       0.775096        21.0914 
 148   0.0000       0.781850        21.2752 
 149   0.0000       0.783462        21.3191 
 150   0.0000       0.791946        21.5500 
 151   0.0000       0.792639        21.5688 
 152   0.0000       0.795856        21.6564 
 153   0.0000       0.801614        21.8130 
 154   0.0000       0.804111        21.8810 
 155   0.0000       0.806425        21.9439 
 156   0.0000       0.808473        21.9997 
 157   0.0000       0.813327        22.1318 
 158   0.0000       0.818922        22.2840 
 159   0.0000       0.823983        22.4217 
 160   0.0000       0.830781        22.6067 
 161   0.0000       0.836084        22.7510 
 162   0.0000       0.836835        22.7714 
 163   0.0000       0.840518        22.8717 
 164   0.0000       0.855398        23.2766 
 165   0.0000       0.862674        23.4746 
 166   0.0000       0.878059        23.8932 
 167   0.0000       0.881568        23.9887 
 168   0.0000       0.894007        24.3272 
 169   0.0000       0.902238        24.5511 
 170   0.0000       0.914463        24.8838 
 171   0.0000       0.927269        25.2323 
 172   0.0000       0.931282        25.3415 
 173   0.0000       0.942914        25.6580 
 174   0.0000       0.948934        25.8218 
 175   0.0000       0.960380        26.1333 
 176   0.0000       0.976300        26.5665 
 177   0.0000       0.991066        26.9683 
 178   0.0000       1.006939        27.4002 
 179   0.0000       1.057639        28.7798 
 180   0.0000       1.063574        28.9413 
 181   0.0000       1.082342        29.4520 
 182   0.0000       1.087127        29.5822 
 183   0.0000       1.102340        29.9962 
 184   0.0000       1.112990        30.2860 
 185   0.0000       1.127958        30.6933 
 186   0.0000       1.133205        30.8361 
 187   0.0000       1.144880        31.1538 
 188   0.0000       1.166950        31.7543 
 189   0.0000       1.187377        32.3102 
 190   0.0000       1.214806        33.0565 
 191   0.0000       1.237938        33.6860 
 192   0.0000       1.249472        33.9999 
 193   0.0000       1.282948        34.9108 
 194   0.0000       1.287678        35.0395 
 195   0.0000       1.299161        35.3520 
 196   0.0000       1.313066        35.7304 
 197   0.0000       1.341314        36.4990 
 198   0.0000       1.376062        37.4446 
 199   0.0000       1.381244        37.5856 
 200   0.0000       1.393170        37.9101 
 201   0.0000       1.410183        38.3730 
 202   0.0000       1.414318        38.4855 
 203   0.0000       1.438495        39.1434 
 204   0.0000       1.452226        39.5171 
 205   0.0000       1.465401        39.8756 
 206   0.0000       1.474313        40.1181 
 207   0.0000       1.510734        41.1092 
 208   0.0000       1.534797        41.7640 
 209   0.0000       1.552624        42.2491 
 210   0.0000       1.589553        43.2539 
 211   0.0000       1.609093        43.7856 
 212   0.0000       1.625395        44.2292 
 213   0.0000       1.638752        44.5927 
 214   0.0000       1.645495        44.7762 
 215   0.0000       1.656513        45.0760 
 216   0.0000       1.677076        45.6355 
 217   0.0000       1.686226        45.8846 
 218   0.0000       1.730693        47.0945 
 219   0.0000       1.773664        48.2638 
 220   0.0000       1.785894        48.5967 
 221   0.0000       1.807082        49.1732 
 222   0.0000       1.811425        49.2914 
 223   0.0000       1.815550        49.4036 
 224   0.0000       1.825624        49.6777 
 225   0.0000       1.834502        49.9193 
 226   0.0000       1.847777        50.2806 
 227   0.0000       1.854219        50.4559 
 228   0.0000       1.860594        50.6293 
 229   0.0000       1.868119        50.8341 
 230   0.0000       1.877457        51.0882 
 231   0.0000       1.881429        51.1963 
 232   0.0000       1.884358        51.2760 
 233   0.0000       1.893671        51.5294 
 234   0.0000       1.901158        51.7331 
 235   0.0000       1.908056        51.9209 
 236   0.0000       1.916045        52.1382 
 237   0.0000       1.920914        52.2707 
 238   0.0000       1.931318        52.5538 
 239   0.0000       1.940655        52.8079 
 240   0.0000       1.946287        52.9612 
 241   0.0000       1.951201        53.0949 
 242   0.0000       1.962534        53.4033 
 243   0.0000       1.969822        53.6016 
 244   0.0000       1.977771        53.8179 
 245   0.0000       1.979707        53.8706 
 246   0.0000       2.002789        54.4987 
 247   0.0000       2.017269        54.8927 
 248   0.0000       2.018767        54.9334 
 249   0.0000       2.035267        55.3824 
 250   0.0000       2.045497        55.6608 
 251   0.0000       2.053019        55.8655 
 252   0.0000       2.062505        56.1236 
 253   0.0000       2.073263        56.4163 
 254   0.0000       2.102856        57.2216 
 255   0.0000       2.104869        57.2764 
 256   0.0000       2.122064        57.7443 
 257   0.0000       2.126157        57.8557 
 258   0.0000       2.137927        58.1760 
 259   0.0000       2.146921        58.4207 
 260   0.0000       2.157933        58.7203 
 261   0.0000       2.167488        58.9803 
 262   0.0000       2.185118        59.4601 
 263   0.0000       2.208310        60.0912 
 264   0.0000       2.214454        60.2583 
 265   0.0000       2.231954        60.7346 
 266   0.0000       2.262293        61.5601 
 267   0.0000       2.274252        61.8855 
 268   0.0000       2.287796        62.2541 
 269   0.0000       2.292366        62.3784 
 270   0.0000       2.310108        62.8612 
 271   0.0000       2.340523        63.6889 
 272   0.0000       2.395788        65.1927 
 273   0.0000       2.402612        65.3784 
 274   0.0000       2.412349        65.6434 
 275   0.0000       2.422403        65.9169 
 276   0.0000       2.440723        66.4154 
 277   0.0000       2.466965        67.1295 
 278   0.0000       2.477673        67.4209 
 279   0.0000       2.494072        67.8671 
 280   0.0000       2.498411        67.9852 
 281   0.0000       2.504650        68.1550 
 282   0.0000       2.519650        68.5632 
 283   0.0000       2.522384        68.6376 
 284   0.0000       2.531877        68.8959 
 285   0.0000       2.543408        69.2097 
 286   0.0000       2.569317        69.9147 
 287   0.0000       2.581072        70.2345 
 288   0.0000       2.601126        70.7802 
 289   0.0000       2.614127        71.1340 
 290   0.0000       2.651282        72.1451 
 291   0.0000       2.681611        72.9703 
 292   0.0000       2.686789        73.1112 
 293   0.0000       2.696882        73.3859 
 294   0.0000       2.730738        74.3072 
 295   0.0000       2.733616        74.3855 
 296   0.0000       2.755638        74.9847 
 297   0.0000       2.769947        75.3741 
 298   0.0000       2.785580        75.7995 
 299   0.0000       2.801254        76.2260 
 300   0.0000       2.814442        76.5849 
 301   0.0000       2.872020        78.1516 
 302   0.0000       2.885574        78.5205 
 303   0.0000       2.938020        79.9476 
 304   0.0000       2.954439        80.3944 
 305   0.0000       2.963902        80.6519 
 306   0.0000       2.976295        80.9891 
 307   0.0000       3.003691        81.7346 
 308   0.0000       3.011903        81.9581 
 309   0.0000       3.061627        83.3111 
 310   0.0000       3.077495        83.7429 
 311   0.0000       3.091303        84.1186 
 312   0.0000       3.112994        84.7089 
 313   0.0000       3.139758        85.4372 
 314   0.0000       3.151813        85.7652 
 315   0.0000       3.166825        86.1737 
 316   0.0000       3.170409        86.2712 
 317   0.0000       3.191703        86.8507 
 318   0.0000       3.242717        88.2388 
 319   0.0000       3.270153        88.9854 
 320   0.0000       3.397152        92.4412 
 321   0.0000       3.454938        94.0136 

                    ********************************
                    * MULLIKEN POPULATION ANALYSIS *
                    ********************************

-----------------------
MULLIKEN ATOMIC CHARGES
-----------------------
   0 S :    0.117260
   1 C :   -0.128421
   2 C :   -0.083394
   3 C :   -0.004594
   4 C :   -0.123539
   5 H :    0.013543
   6 C :    0.090467
   7 H :    0.037733
   8 H :    0.009553
   9 C :   -0.100160
  10 H :    0.031924
  11 H :    0.025256
  12 C :   -0.031480
  13 H :    0.026686
  14 H :    0.024575
  15 H :    0.039446
  16 S :    0.084890
  17 C :   -0.095995
  18 C :   -0.029500
  19 C :   -0.083786
  20 C :   -0.125395
  21 H :    0.046644
  22 C :    0.079388
  23 H :    0.001707
  24 H :    0.044151
  25 C :   -0.103554
  26 H :    0.010913
  27 H :    0.039495
  28 C :   -0.001518
  29 H :    0.025401
  30 H :    0.018313
  31 H :    0.029735
  32 H :    0.052043
  33 H :    0.062217
Sum of atomic charges:   -0.0000000

--------------------------------
MULLIKEN REDUCED ORBITAL CHARGES
--------------------------------
  0 S s       :     5.847166  s :     5.847166
      pz      :     2.992032  p :     9.933215
      px      :     3.678706
      py      :     3.262477
      dz2     :     0.023345  d :     0.102359
      dxz     :     0.018530
      dyz     :     0.031255
      dx2y2   :     0.016708
      dxy     :     0.012522
  1 C s       :     3.174820  s :     3.174820
      pz      :     0.949413  p :     2.919910
      px      :     1.116470
      py      :     0.854027
      dz2     :     0.008373  d :     0.033691
      dxz     :     0.003725
      dyz     :     0.009426
      dx2y2   :     0.005707
      dxy     :     0.006460
  2 C s       :     3.073458  s :     3.073458
      pz      :     1.007219  p :     2.963557
      px      :     0.991782
      py      :     0.964556
      dz2     :     0.010477  d :     0.046379
      dxz     :     0.008153
      dyz     :     0.014103
      dx2y2   :     0.006259
      dxy     :     0.007387
  3 C s       :     3.192604  s :     3.192604
      pz      :     0.874503  p :     2.776775
      px      :     1.002389
      py      :     0.899882
      dz2     :     0.009417  d :     0.035216
      dxz     :     0.004843
      dyz     :     0.010171
      dx2y2   :     0.005091
      dxy     :     0.005693
  4 C s       :     3.069309  s :     3.069309
      pz      :     0.957308  p :     3.011786
      px      :     1.085520
      py      :     0.968958
      dz2     :     0.009982  d :     0.042444
      dxz     :     0.005879
      dyz     :     0.013826
      dx2y2   :     0.005065
      dxy     :     0.007692
  5 H s       :     0.962347  s :     0.962347
      pz      :     0.011875  p :     0.024110
      px      :     0.005262
      py      :     0.006973
  6 C s       :     2.951512  s :     2.951512
      pz      :     0.991095  p :     2.921732
      px      :     1.017061
      py      :     0.913576
      dz2     :     0.008560  d :     0.036290
      dxz     :     0.005650
      dyz     :     0.004524
      dx2y2   :     0.009877
      dxy     :     0.007679
  7 H s       :     0.939516  s :     0.939516
      pz      :     0.006770  p :     0.022751
      px      :     0.011618
      py      :     0.004363
  8 H s       :     0.968232  s :     0.968232
      pz      :     0.013663  p :     0.022216
      px      :     0.004615
      py      :     0.003938
  9 C s       :     3.051986  s :     3.051986
      pz      :     1.017784  p :     3.008711
      px      :     1.006437
      py      :     0.984490
      dz2     :     0.010863  d :     0.039463
      dxz     :     0.003053
      dyz     :     0.006472
      dx2y2   :     0.009962
      dxy     :     0.009113
 10 H s       :     0.947512  s :     0.947512
      pz      :     0.013220  p :     0.020565
      px      :     0.004132
      py      :     0.003213
 11 H s       :     0.950427  s :     0.950427
      pz      :     0.005262  p :     0.024316
      px      :     0.013188
      py      :     0.005866
 12 C s       :     2.991321  s :     2.991321
      pz      :     1.002916  p :     3.009121
      px      :     1.036077
      py      :     0.970128
      dz2     :     0.007578  d :     0.031038
      dxz     :     0.004225
      dyz     :     0.005253
      dx2y2   :     0.004262
      dxy     :     0.009719
 13 H s       :     0.950005  s :     0.950005
      pz      :     0.004758  p :     0.023310
      px      :     0.011240
      py      :     0.007311
 14 H s       :     0.949947  s :     0.949947
      pz      :     0.007856  p :     0.025478
      px      :     0.010000
      py      :     0.007623
 15 H s       :     0.938259  s :     0.938259
      pz      :     0.013070  p :     0.022295
      px      :     0.005307
      py      :     0.003919
 16 S s       :     5.846429  s :     5.846429
      pz      :     3.201414  p :     9.958131
      px      :     3.532919
      py      :     3.223797
      dz2     :     0.036502  d :     0.110550
      dxz     :     0.019502
      dyz     :     0.015146
      dx2y2   :     0.015618
      dxy     :     0.023782
 17 C s       :     3.147542  s :     3.147542
      pz      :     0.896583  p :     2.911723
      px      :     1.041947
      py      :     0.973193
      dz2     :     0.011361  d :     0.036730
      dxz     :     0.005954
      dyz     :     0.007729
      dx2y2   :     0.007209
      dxy     :     0.004477
 18 C s       :     3.182882  s :     3.182882
      pz      :     0.898065  p :     2.811878
      px      :     0.983668
      py      :     0.930145
      dz2     :     0.006928  d :     0.034740
      dxz     :     0.004798
      dyz     :     0.009903
      dx2y2   :     0.006301
      dxy     :     0.006811
 19 C s       :     3.074998  s :     3.074998
      pz      :     0.974357  p :     2.965672
      px      :     1.017577
      py      :     0.973738
      dz2     :     0.009786  d :     0.043116
      dxz     :     0.007593
      dyz     :     0.012679
      dx2y2   :     0.006539
      dxy     :     0.006519
 20 C s       :     3.082099  s :     3.082099
      pz      :     1.008571  p :     3.000727
      px      :     1.049976
      py      :     0.942180
      dz2     :     0.012265  d :     0.042569
      dxz     :     0.008048
      dyz     :     0.009320
      dx2y2   :     0.005695
      dxy     :     0.007241
 21 H s       :     0.931068  s :     0.931068
      pz      :     0.013183  p :     0.022288
      px      :     0.006089
      py      :     0.003016
 22 C s       :     2.967288  s :     2.967288
      pz      :     0.973540  p :     2.919068
      px      :     1.006633
      py      :     0.938894
      dz2     :     0.006369  d :     0.034257
      dxz     :     0.004613
      dyz     :     0.009459
      dx2y2   :     0.009588
      dxy     :     0.004228
 23 H s       :     0.974143  s :     0.974143
      pz      :     0.009619  p :     0.024150
      px      :     0.005032
      py      :     0.009499
 24 H s       :     0.933743  s :     0.933743
      pz      :     0.004166  p :     0.022107
      px      :     0.013395
      py      :     0.004545
 25 C s       :     3.055472  s :     3.055472
      pz      :     0.987347  p :     3.010007
      px      :     1.021616
      py      :     1.001044
      dz2     :     0.005865  d :     0.038076
      dxz     :     0.006171
      dyz     :     0.011926
      dx2y2   :     0.010222
      dxy     :     0.003891
 26 H s       :     0.963661  s :     0.963661
      pz      :     0.009359  p :     0.025426
      px      :     0.005541
      py      :     0.010527
 27 H s       :     0.939277  s :     0.939277
      pz      :     0.004283  p :     0.021228
      px      :     0.012841
      py      :     0.004104
 28 C s       :     2.962635  s :     2.962635
      pz      :     1.012917  p :     3.008860
      px      :     1.026459
      py      :     0.969484
      dz2     :     0.001902  d :     0.030024
      dxz     :     0.008117
      dyz     :     0.008171
      dx2y2   :     0.008638
      dxy     :     0.003197
 29 H s       :     0.950989  s :     0.950989
      pz      :     0.008500  p :     0.023610
      px      :     0.005265
      py      :     0.009845
 30 H s       :     0.956695  s :     0.956695
      pz      :     0.007176  p :     0.024992
      px      :     0.012464
      py      :     0.005351
 31 H s       :     0.944834  s :     0.944834
      pz      :     0.009942  p :     0.025431
      px      :     0.009951
      py      :     0.005538
 32 H s       :     0.925008  s :     0.925008
      pz      :     0.014158  p :     0.022949
      px      :     0.005627
      py      :     0.003163
 33 H s       :     0.914501  s :     0.914501
      pz      :     0.004264  p :     0.023282
      px      :     0.004813
      py      :     0.014205


                     *******************************
                     * LOEWDIN POPULATION ANALYSIS *
                     *******************************

----------------------
LOEWDIN ATOMIC CHARGES
----------------------
   0 S :    0.396031
   1 C :   -0.207191
   2 C :   -0.065914
   3 C :   -0.063027
   4 C :   -0.179598
   5 H :    0.030042
   6 C :   -0.034404
   7 H :    0.036990
   8 H :    0.028521
   9 C :   -0.049452
  10 H :    0.027131
  11 H :    0.025983
  12 C :   -0.065439
  13 H :    0.022388
  14 H :    0.026942
  15 H :    0.032107
  16 S :    0.405448
  17 C :   -0.186733
  18 C :   -0.077104
  19 C :   -0.054131
  20 C :   -0.192768
  21 H :    0.043473
  22 C :   -0.025721
  23 H :    0.017897
  24 H :    0.036394
  25 C :   -0.040746
  26 H :    0.011748
  27 H :    0.032356
  28 C :   -0.061313
  29 H :    0.025700
  30 H :    0.024108
  31 H :    0.022779
  32 H :    0.032743
  33 H :    0.024760

-------------------------------
LOEWDIN REDUCED ORBITAL CHARGES
-------------------------------
  0 S s       :     5.524713  s :     5.524713
      pz      :     3.014399  p :     9.953713
      px      :     3.636995
      py      :     3.302319
      dz2     :     0.030839  d :     0.125544
      dxz     :     0.022415
      dyz     :     0.039780
      dx2y2   :     0.019493
      dxy     :     0.013016
  1 C s       :     2.938111  s :     2.938111
      pz      :     1.063304  p :     3.190088
      px      :     1.120106
      py      :     1.006678
      dz2     :     0.021050  d :     0.078992
      dxz     :     0.006690
      dyz     :     0.024872
      dx2y2   :     0.012986
      dxy     :     0.013394
  2 C s       :     2.849732  s :     2.849732
      pz      :     1.077014  p :     3.100041
      px      :     0.973636
      py      :     1.049391
      dz2     :     0.029153  d :     0.116141
      dxz     :     0.017780
      dyz     :     0.039551
      dx2y2   :     0.015226
      dxy     :     0.014431
  3 C s       :     2.856849  s :     2.856849
      pz      :     1.049982  p :     3.111680
      px      :     1.013798
      py      :     1.047900
      dz2     :     0.027477  d :     0.094498
      dxz     :     0.009885
      dyz     :     0.030109
      dx2y2   :     0.014193
      dxy     :     0.012833
  4 C s       :     2.921170  s :     2.921170
      pz      :     0.998045  p :     3.159290
      px      :     1.078604
      py      :     1.082640
      dz2     :     0.024406  d :     0.099139
      dxz     :     0.011506
      dyz     :     0.034725
      dx2y2   :     0.012521
      dxy     :     0.015979
  5 H s       :     0.899940  s :     0.899940
      pz      :     0.033546  p :     0.070018
      px      :     0.015711
      py      :     0.020761
  6 C s       :     2.825021  s :     2.825021
      pz      :     1.055277  p :     3.117445
      px      :     1.052076
      py      :     1.010092
      dz2     :     0.022898  d :     0.091938
      dxz     :     0.014211
      dyz     :     0.010609
      dx2y2   :     0.024052
      dxy     :     0.020169
  7 H s       :     0.897292  s :     0.897292
      pz      :     0.018640  p :     0.065718
      px      :     0.033550
      py      :     0.013528
  8 H s       :     0.907139  s :     0.907139
      pz      :     0.038190  p :     0.064340
      px      :     0.013724
      py      :     0.012426
  9 C s       :     2.825877  s :     2.825877
      pz      :     1.042040  p :     3.126817
      px      :     1.052691
      py      :     1.032086
      dz2     :     0.027332  d :     0.096758
      dxz     :     0.006976
      dyz     :     0.015133
      dx2y2   :     0.024568
      dxy     :     0.022749
 10 H s       :     0.914876  s :     0.914876
      pz      :     0.036386  p :     0.057993
      px      :     0.011023
      py      :     0.010584
 11 H s       :     0.902380  s :     0.902380
      pz      :     0.015541  p :     0.071637
      px      :     0.038378
      py      :     0.017718
 12 C s       :     2.823469  s :     2.823469
      pz      :     1.053850  p :     3.162425
      px      :     1.079054
      py      :     1.029521
      dz2     :     0.020029  d :     0.079546
      dxz     :     0.010198
      dyz     :     0.013357
      dx2y2   :     0.012012
      dxy     :     0.023950
 13 H s       :     0.913109  s :     0.913109
      pz      :     0.012364  p :     0.064503
      px      :     0.030574
      py      :     0.021565
 14 H s       :     0.901818  s :     0.901818
      pz      :     0.022027  p :     0.071241
      px      :     0.027108
      py      :     0.022105
 15 H s       :     0.906918  s :     0.906918
      pz      :     0.035889  p :     0.060974
      px      :     0.013942
      py      :     0.011143
 16 S s       :     5.505115  s :     5.505115
      pz      :     3.220340  p :     9.954039
      px      :     3.515692
      py      :     3.218007
      dz2     :     0.046704  d :     0.135398
      dxz     :     0.022920
      dyz     :     0.017642
      dx2y2   :     0.018820
      dxy     :     0.029313
 17 C s       :     2.928031  s :     2.928031
      pz      :     1.025569  p :     3.171297
      px      :     1.074794
      py      :     1.070934
      dz2     :     0.027626  d :     0.087405
      dxz     :     0.013324
      dyz     :     0.019607
      dx2y2   :     0.016076
      dxy     :     0.010772
 18 C s       :     2.870093  s :     2.870093
      pz      :     1.038441  p :     3.116190
      px      :     1.031565
      py      :     1.046185
      dz2     :     0.017727  d :     0.090821
      dxz     :     0.011414
      dyz     :     0.028748
      dx2y2   :     0.015406
      dxy     :     0.017526
 19 C s       :     2.865097  s :     2.865097
      pz      :     1.051093  p :     3.082867
      px      :     0.993615
      py      :     1.038159
      dz2     :     0.026929  d :     0.106167
      dxz     :     0.016743
      dyz     :     0.035438
      dx2y2   :     0.014526
      dxy     :     0.012531
 20 C s       :     2.919477  s :     2.919477
      pz      :     1.077990  p :     3.172826
      px      :     1.084592
      py      :     1.010244
      dz2     :     0.032163  d :     0.100464
      dxz     :     0.016470
      dyz     :     0.024774
      dx2y2   :     0.011687
      dxy     :     0.015371
 21 H s       :     0.891761  s :     0.891761
      pz      :     0.037365  p :     0.064767
      px      :     0.017504
      py      :     0.009898
 22 C s       :     2.835095  s :     2.835095
      pz      :     1.039431  p :     3.105736
      px      :     1.050538
      py      :     1.015767
      dz2     :     0.014806  d :     0.084890
      dxz     :     0.012002
      dyz     :     0.024220
      dx2y2   :     0.024253
      dxy     :     0.009608
 23 H s       :     0.910632  s :     0.910632
      pz      :     0.028651  p :     0.071471
      px      :     0.014622
      py      :     0.028197
 24 H s       :     0.899161  s :     0.899161
      pz      :     0.012788  p :     0.064445
      px      :     0.038726
      py      :     0.012931
 25 C s       :     2.821218  s :     2.821218
      pz      :     1.035896  p :     3.126182
      px      :     1.046357
      py      :     1.043929
      dz2     :     0.013755  d :     0.093346
      dxz     :     0.015711
      dyz     :     0.029661
      dx2y2   :     0.026275
      dxy     :     0.007944
 26 H s       :     0.910420  s :     0.910420
      pz      :     0.028722  p :     0.077833
      px      :     0.017498
      py      :     0.031613
 27 H s       :     0.906360  s :     0.906360
      pz      :     0.012751  p :     0.061284
      px      :     0.036577
      py      :     0.011956
 28 C s       :     2.814938  s :     2.814938
      pz      :     1.065069  p :     3.169505
      px      :     1.076880
      py      :     1.027556
      dz2     :     0.004172  d :     0.076869
      dxz     :     0.020351
      dyz     :     0.022770
      dx2y2   :     0.022394
      dxy     :     0.007182
 29 H s       :     0.910215  s :     0.910215
      pz      :     0.022895  p :     0.064084
      px      :     0.013264
      py      :     0.027926
 30 H s       :     0.906588  s :     0.906588
      pz      :     0.019813  p :     0.069304
      px      :     0.034269
      py      :     0.015221
 31 H s       :     0.904004  s :     0.904004
      pz      :     0.028457  p :     0.073217
      px      :     0.027675
      py      :     0.017085
 32 H s       :     0.896078  s :     0.896078
      pz      :     0.041294  p :     0.071179
      px      :     0.018268
      py      :     0.011616
 33 H s       :     0.902294  s :     0.902294
      pz      :     0.015968  p :     0.072946
      px      :     0.015760
      py      :     0.041217


                      *****************************
                      * MAYER POPULATION ANALYSIS *
                      *****************************

  NA   - Mulliken gross atomic population
  ZA   - Total nuclear charge
  QA   - Mulliken gross atomic charge
  VA   - Mayer's total valence
  BVA  - Mayer's bonded valence
  FA   - Mayer's free valence

  ATOM       NA         ZA         QA         VA         BVA        FA
  0 S     15.8827    16.0000     0.1173     2.4699     2.4699    -0.0000
  1 C      6.1284     6.0000    -0.1284     3.8355     3.8355    -0.0000
  2 C      6.0834     6.0000    -0.0834     4.0621     4.0621     0.0000
  3 C      6.0046     6.0000    -0.0046     3.9244     3.9244    -0.0000
  4 C      6.1235     6.0000    -0.1235     3.8874     3.8874     0.0000
  5 H      0.9865     1.0000     0.0135     1.0007     1.0007    -0.0000
  6 C      5.9095     6.0000     0.0905     3.9321     3.9321     0.0000
  7 H      0.9623     1.0000     0.0377     0.9791     0.9791     0.0000
  8 H      0.9904     1.0000     0.0096     0.9965     0.9965    -0.0000
  9 C      6.1002     6.0000    -0.1002     4.1015     4.1015    -0.0000
 10 H      0.9681     1.0000     0.0319     0.9779     0.9779     0.0000
 11 H      0.9747     1.0000     0.0253     0.9790     0.9790     0.0000
 12 C      6.0315     6.0000    -0.0315     4.0099     4.0099    -0.0000
 13 H      0.9733     1.0000     0.0267     0.9873     0.9873     0.0000
 14 H      0.9754     1.0000     0.0246     0.9882     0.9882     0.0000
 15 H      0.9606     1.0000     0.0394     0.9868     0.9868     0.0000
 16 S     15.9151    16.0000     0.0849     2.5022     2.5022    -0.0000
 17 C      6.0960     6.0000    -0.0960     3.8446     3.8446    -0.0000
 18 C      6.0295     6.0000    -0.0295     3.9275     3.9275    -0.0000
 19 C      6.0838     6.0000    -0.0838     4.0249     4.0249    -0.0000
 20 C      6.1254     6.0000    -0.1254     3.9369     3.9369     0.0000
 21 H      0.9534     1.0000     0.0466     0.9935     0.9935    -0.0000
 22 C      5.9206     6.0000     0.0794     3.9489     3.9489    -0.0000
 23 H      0.9983     1.0000     0.0017     1.0060     1.0060    -0.0000
 24 H      0.9558     1.0000     0.0442     0.9827     0.9827     0.0000
 25 C      6.1036     6.0000    -0.1036     4.1016     4.1016     0.0000
 26 H      0.9891     1.0000     0.0109     0.9881     0.9881     0.0000
 27 H      0.9605     1.0000     0.0395     0.9752     0.9752     0.0000
 28 C      6.0015     6.0000    -0.0015     3.9962     3.9962     0.0000
 29 H      0.9746     1.0000     0.0254     0.9927     0.9927     0.0000
 30 H      0.9817     1.0000     0.0183     0.9898     0.9898     0.0000
 31 H      0.9703     1.0000     0.0297     0.9898     0.9898     0.0000
 32 H      0.9480     1.0000     0.0520     1.0038     1.0038     0.0000
 33 H      0.9378     1.0000     0.0622     0.9921     0.9921    -0.0000

  Mayer bond orders larger than 0.100000
B(  0-S ,  1-C ) :   1.1308 B(  0-S ,  4-C ) :   1.1491 B(  1-C ,  2-C ) :   1.6094 
B(  1-C , 32-H ) :   0.9540 B(  2-C ,  3-C ) :   1.2635 B(  2-C ,  6-C ) :   1.0386 
B(  3-C ,  4-C ) :   1.5610 B(  3-C ,  5-H ) :   0.9862 B(  4-C , 20-C ) :   1.0343 
B(  6-C ,  7-H ) :   0.9326 B(  6-C ,  8-H ) :   0.9355 B(  6-C ,  9-C ) :   1.0543 
B(  9-C , 10-H ) :   0.9469 B(  9-C , 11-H ) :   0.9557 B(  9-C , 12-C ) :   1.1044 
B( 12-C , 13-H ) :   0.9713 B( 12-C , 14-H ) :   0.9682 B( 12-C , 15-H ) :   0.9710 
B( 16-S , 17-C ) :   1.1782 B( 16-S , 20-C ) :   1.1376 B( 17-C , 18-C ) :   1.5883 
B( 17-C , 33-H ) :   0.9655 B( 18-C , 19-C ) :   1.2377 B( 18-C , 21-H ) :   0.9821 
B( 19-C , 20-C ) :   1.6157 B( 19-C , 22-C ) :   1.0295 B( 22-C , 23-H ) :   0.9404 
B( 22-C , 24-H ) :   0.9382 B( 22-C , 25-C ) :   1.0502 B( 25-C , 26-H ) :   0.9571 
B( 25-C , 27-H ) :   0.9565 B( 25-C , 28-C ) :   1.0943 B( 28-C , 29-H ) :   0.9720 
B( 28-C , 30-H ) :   0.9712 B( 28-C , 31-H ) :   0.9732 

-------
TIMINGS
-------

Total SCF time: 0 days 0 hours 0 min 19 sec 

Total time                  ....      19.619 sec
Sum of individual times     ....      18.751 sec  ( 95.6%)

Fock matrix formation       ....      17.088 sec  ( 87.1%)
  XC integration            ....       1.483 sec  (  8.7% of F)
    Basis function eval.    ....       0.139 sec  (  9.4% of XC)
    Density eval.           ....       0.102 sec  (  6.9% of XC)
    XC-Functional eval.     ....       0.117 sec  (  7.9% of XC)
    XC-Potential eval.      ....       0.123 sec  (  8.3% of XC)
Diagonalization             ....       0.136 sec  (  0.7%)
Density matrix formation    ....       0.024 sec  (  0.1%)
Population analysis         ....       0.057 sec  (  0.3%)
Initial guess               ....       0.168 sec  (  0.9%)
Orbital Transformation      ....       0.000 sec  (  0.0%)
Orbital Orthonormalization  ....       0.000 sec  (  0.0%)
DIIS solution               ....       0.147 sec  (  0.8%)
SOSCF solution              ....       0.125 sec  (  0.6%)
Grid generation             ....       1.005 sec  (  5.1%)


-------------------------------------------------------------------------------
                          DFT DISPERSION CORRECTION                            
                                                                               
                              DFTD3 V3.1  Rev 1                                
                              USING zero damping                               
-------------------------------------------------------------------------------
The omegaB97X-D3 functional is recognized. Fit by Chai et al.
Active option DFTDOPT                   ...         3   

molecular C6(AA) [au] = 14186.837392 


            DFT-D V3
 parameters
 s6 scaling factor         :     1.0000 
 rs6 scaling factor        :     1.2810 
 s8 scaling factor         :     1.0000 
 rs8 scaling factor        :     1.0940 
 Damping factor alpha6     :    14.0000 
 Damping factor alpha8     :    16.0000 
 ad hoc parameters k1-k3   :    16.0000     1.3333    -4.0000 

 Edisp/kcal,au: -8.544887721593  -0.013617143905 
 E6   /kcal   :  -3.935464359 
 E8   /kcal   :  -4.609423363 
 % E8         :  53.943638735 

-------------------------   ----------------
Dispersion correction           -0.013617144
-------------------------   ----------------


-------------------------   --------------------
FINAL SINGLE POINT ENERGY     -1339.871387759919
-------------------------   --------------------


                            ***************************************
                            *     ORCA property calculations      *
                            ***************************************

                                    ---------------------
                                    Active property flags
                                    ---------------------
   (+) Dipole Moment


------------------------------------------------------------------------------
                       ORCA ELECTRIC PROPERTIES CALCULATION
------------------------------------------------------------------------------

Dipole Moment Calculation                       ... on
Quadrupole Moment Calculation                   ... off
Polarizability Calculation                      ... off
GBWName                                         ... config_191.gbw
Electron density file                           ... config_191.scfp
The origin for moment calculation is the CENTER OF MASS  = (-106.050831, -1.900722 -58.378104)

-------------
DIPOLE MOMENT
-------------
                                X             Y             Z
Electronic contribution:     -3.02213     -31.05420     -10.78961
Nuclear contribution   :      3.03147      31.67810      11.18736
                        -----------------------------------------
Total Dipole Moment    :      0.00934       0.62390       0.39775
                        -----------------------------------------
Magnitude (a.u.)       :      0.73996
Magnitude (Debye)      :      1.88084



--------------------
Rotational spectrum 
--------------------
 
Rotational constants in cm-1:     0.016089     0.009512     0.006194 
Rotational constants in MHz :   482.321107   285.162776   185.693448 

 Dipole components along the rotational axes: 
x,y,z [a.u.] :    -0.170786     0.715733     0.078134 
x,y,z [Debye]:    -0.434103     1.819248     0.198602 

 

Timings for individual modules:

Sum of individual times         ...       20.776 sec (=   0.346 min)
GTO integral calculation        ...        0.777 sec (=   0.013 min)   3.7 %
SCF iterations                  ...       19.999 sec (=   0.333 min)  96.3 %
                             ****ORCA TERMINATED NORMALLY****
TOTAL RUN TIME: 0 days 0 hours 0 minutes 21 seconds 468 msec
