
                                 *****************
                                 * O   R   C   A *
                                 *****************

           --- An Ab Initio, DFT and Semiempirical electronic structure package ---

                  #######################################################
                  #                        -***-                        #
                  #          Department of theory and spectroscopy      #
                  #               Directorship: Frank Neese             #
                  #        Max Planck Institute fuer Kohlenforschung    #
                  #                Kaiser Wilhelm Platz 1               #
                  #                 D-45470 Muelheim/Ruhr               #
                  #                      Germany                        #
                  #                                                     #
                  #                  All rights reserved                #
                  #                        -***-                        #
                  #######################################################


                         Program Version 4.2.1 -  RELEASE  -


 With contributions from (in alphabetic order):
   Daniel Aravena         : Magnetic Suceptibility
   Michael Atanasov       : Ab Initio Ligand Field Theory (pilot matlab implementation)
   Alexander A. Auer      : GIAO ZORA, VPT2
   Ute Becker             : Parallelization
   Giovanni Bistoni       : ED, misc. LED, open-shell LED, HFLD
   Martin Brehm           : Molecular dynamics
   Dmytro Bykov           : SCF Hessian
   Vijay G. Chilkuri      : MRCI spin determinant printing, contributions to CSF-ICE
   Dipayan Datta          : RHF DLPNO-CCSD density
   Achintya Kumar Dutta   : EOM-CC, STEOM-CC
   Dmitry Ganyushin       : Spin-Orbit,Spin-Spin,Magnetic field MRCI
   Miquel Garcia          : C-PCM Hessian, Gaussian charge scheme
   Yang Guo               : DLPNO-NEVPT2, CIM, IAO-localization
   Andreas Hansen         : Spin unrestricted coupled pair/coupled cluster methods
   Benjamin Helmich-Paris : CASSCF linear response (MC-RPA)
   Lee Huntington         : MR-EOM, pCC
   Robert Izsak           : Overlap fitted RIJCOSX, COSX-SCS-MP3, EOM
   Christian Kollmar      : KDIIS, OOCD, Brueckner-CCSD(T), CCSD density
   Simone Kossmann        : Meta GGA functionals, TD-DFT gradient, OOMP2, MP2 Hessian
   Martin Krupicka        : AUTO-CI
   Lucas Lang             : DCDCAS
   Dagmar Lenk            : GEPOL surface, SMD
   Dimitrios Liakos       : Extrapolation schemes; Compound Job, initial MDCI parallelization
   Dimitrios Manganas     : Further ROCIS development; embedding schemes
   Dimitrios Pantazis     : SARC Basis sets
   Taras Petrenko         : DFT Hessian,TD-DFT gradient, ASA, ECA, R-Raman, ABS, FL, XAS/XES, NRVS
   Peter Pinski           : DLPNO-MP2, DLPNO-MP2 Gradient
   Christoph Reimann      : Effective Core Potentials
   Marius Retegan         : Local ZFS, SOC
   Christoph Riplinger    : Optimizer, TS searches, QM/MM, DLPNO-CCSD(T), (RO)-DLPNO pert. Triples
   Tobias Risthaus        : Range-separated hybrids, TD-DFT gradient, RPA, STAB
   Michael Roemelt        : Original ROCIS implementation
   Masaaki Saitow         : Open-shell DLPNO-CCSD energy and density
   Barbara Sandhoefer     : DKH picture change effects
   Avijit Sen             : IP-ROCIS
   Kantharuban Sivalingam : CASSCF convergence, NEVPT2, FIC-MRCI
   Bernardo de Souza      : ESD, SOC TD-DFT
   Georgi Stoychev        : AutoAux, RI-MP2 NMR
   Willem Van den Heuvel  : Paramagnetic NMR
   Boris Wezisla          : Elementary symmetry handling
   Frank Wennmohs         : Technical directorship


 We gratefully acknowledge several colleagues who have allowed us to
 interface, adapt or use parts of their codes:
   Stefan Grimme, W. Hujo, H. Kruse,             : VdW corrections, initial TS optimization,
                  C. Bannwarth                     DFT functionals, gCP, sTDA/sTD-DF
   Ed Valeev, F. Pavosevic, A. Kumar             : LibInt (2-el integral package), F12 methods
   Garnet Chan, S. Sharma, J. Yang, R. Olivares  : DMRG
   Ulf Ekstrom                                   : XCFun DFT Library
   Mihaly Kallay                                 : mrcc  (arbitrary order and MRCC methods)
   Andreas Klamt, Michael Diedenhofen            : otool_cosmo (COSMO solvation model)
   Jiri Pittner, Ondrej Demel                    : Mk-CCSD
   Frank Weinhold                                : gennbo (NPA and NBO analysis)
   Christopher J. Cramer and Donald G. Truhlar   : smd solvation model
   Lars Goerigk                                  : TD-DFT with DH, B97 family of functionals
   V. Asgeirsson, H. Jonsson                     : NEB implementation
   FAccTs GmbH                                   : IRC, NEB, NEB-TS, Multilevel, MM, QM/MM, CI optimization
   S Lehtola, MJT Oliveira, MAL Marques          : LibXC Library


 Your calculation uses the libint2 library for the computation of 2-el integrals
 For citations please refer to: http://libint.valeyev.net

 Your ORCA version has been built with support for libXC version: 4.2.3
 For citations please refer to: https://tddft.org/programs/libxc/

 This ORCA versions uses:
   CBLAS   interface :  Fast vector & matrix operations
   LAPACKE interface :  Fast linear algebra routines
   SCALAPACK package :  Parallel linear algebra routines


Your calculation utilizes the atom-pairwise dispersion correction
with the zero-damping scheme (D30)
Cite in your paper:
S.Grimme, J.Antony, S.Ehrlich and H.Krieg, J.Chem.Phys., 132, (2010), 154104 
   

XCFun DFT library Copyright 2009-2010 Ulf Ekstrom and contributors.
See http://admol.org/xcfun for more information. This is free soft-
ware; see the source code for copying conditions. There is ABSOLUTELY
NO WARRANTY; not even for MERCHANTABILITY or FITNESS FOR A PARTICULAR
PURPOSE. For details see the documentation. Scientific users of this 
library should cite U. Ekstrom, L. Visscher, R. Bast, A. J. Thorvald-
sen and K. Ruud; J.Chem.Theor.Comp. 2010, DOI: 10.1021/ct100117s
XCFun Version 0.99 
----- Orbital basis set information -----
Your calculation utilizes the basis: def2-SVP
   F. Weigend and R. Ahlrichs, Phys. Chem. Chem. Phys. 7, 3297 (2005).

================================================================================
                                        WARNINGS
                       Please study these warnings very carefully!
================================================================================


INFO   : the flag for use of LIBINT has been found!

================================================================================
                                       INPUT FILE
================================================================================
NAME = config_7669.inp
|  1> ! wB97X-D3 SP def2-SVP
|  2> %pal
|  3> nprocs 16
|  4> end
|  5> 
|  6> * xyz 0 1
|  7> S 	 -38.7777 	 57.206 	 105.197 	 
|  8> C 	 -40.2976 	 57.8554 	 105.509 	 
|  9> C 	 -41.2675 	 56.9241 	 105.259 	 
| 10> C 	 -40.781 	 55.7353 	 104.633 	 
| 11> C 	 -39.3907 	 55.7565 	 104.403 	 
| 12> H 	 -41.4004 	 54.9294 	 104.224 	 
| 13> C 	 -42.6806 	 57.1077 	 105.67 	 
| 14> H 	 -43.1712 	 56.1496 	 105.541 	 
| 15> H 	 -43.3362 	 57.7193 	 105.053 	 
| 16> C 	 -42.9594 	 57.6746 	 107.131 	 
| 17> H 	 -42.3454 	 58.5316 	 107.365 	 
| 18> H 	 -44.0219 	 57.999 	 106.992 	 
| 19> C 	 -42.9239 	 56.6049 	 108.283 	 
| 20> H 	 -43.1795 	 57.0949 	 109.222 	 
| 21> H 	 -43.6802 	 55.7953 	 108.086 	 
| 22> H 	 -41.9751 	 56.1842 	 108.378 	 
| 23> S 	 -37.4641 	 55.358 	 102.502 	 
| 24> C 	 -36.9729 	 53.7345 	 102.156 	 
| 25> C 	 -37.3839 	 52.8982 	 103.168 	 
| 26> C 	 -38.3511 	 53.4637 	 104.025 	 
| 27> C 	 -38.5069 	 54.7828 	 103.762 	 
| 28> H 	 -37.154 	 51.8179 	 103.121 	 
| 29> C 	 -38.9842 	 52.7572 	 105.24 	 
| 30> H 	 -40.0397 	 52.5737 	 104.982 	 
| 31> H 	 -39.0211 	 53.4431 	 106.121 	 
| 32> C 	 -38.2954 	 51.4587 	 105.746 	 
| 33> H 	 -37.1951 	 51.4779 	 105.788 	 
| 34> H 	 -38.4735 	 50.7952 	 104.866 	 
| 35> C 	 -38.9204 	 50.6205 	 107.003 	 
| 36> H 	 -38.6205 	 50.9978 	 107.972 	 
| 37> H 	 -38.6167 	 49.5973 	 106.939 	 
| 38> H 	 -39.944 	 50.5085 	 106.84 	 
| 39> H 	 -40.543 	 58.7053 	 106.135 	 
| 40> H 	 -36.3287 	 53.3529 	 101.35 	 
| 41> *
| 42> 
| 43>                          ****END OF INPUT****
================================================================================

                       ****************************
                       * Single Point Calculation *
                       ****************************

---------------------------------
CARTESIAN COORDINATES (ANGSTROEM)
---------------------------------
  S    -38.777700   57.206000  105.197000
  C    -40.297600   57.855400  105.509000
  C    -41.267500   56.924100  105.259000
  C    -40.781000   55.735300  104.633000
  C    -39.390700   55.756500  104.403000
  H    -41.400400   54.929400  104.224000
  C    -42.680600   57.107700  105.670000
  H    -43.171200   56.149600  105.541000
  H    -43.336200   57.719300  105.053000
  C    -42.959400   57.674600  107.131000
  H    -42.345400   58.531600  107.365000
  H    -44.021900   57.999000  106.992000
  C    -42.923900   56.604900  108.283000
  H    -43.179500   57.094900  109.222000
  H    -43.680200   55.795300  108.086000
  H    -41.975100   56.184200  108.378000
  S    -37.464100   55.358000  102.502000
  C    -36.972900   53.734500  102.156000
  C    -37.383900   52.898200  103.168000
  C    -38.351100   53.463700  104.025000
  C    -38.506900   54.782800  103.762000
  H    -37.154000   51.817900  103.121000
  C    -38.984200   52.757200  105.240000
  H    -40.039700   52.573700  104.982000
  H    -39.021100   53.443100  106.121000
  C    -38.295400   51.458700  105.746000
  H    -37.195100   51.477900  105.788000
  H    -38.473500   50.795200  104.866000
  C    -38.920400   50.620500  107.003000
  H    -38.620500   50.997800  107.972000
  H    -38.616700   49.597300  106.939000
  H    -39.944000   50.508500  106.840000
  H    -40.543000   58.705300  106.135000
  H    -36.328700   53.352900  101.350000

----------------------------
CARTESIAN COORDINATES (A.U.)
----------------------------
  NO LB      ZA    FRAG     MASS         X           Y           Z
   0 S    16.0000    0    32.060  -73.279233  108.103673  198.793520
   1 C     6.0000    0    12.011  -76.151428  109.330861  199.383115
   2 C     6.0000    0    12.011  -77.984273  107.570959  198.910683
   3 C     6.0000    0    12.011  -77.064921  105.324453  197.727715
   4 C     6.0000    0    12.011  -74.437635  105.364515  197.293078
   5 H     1.0000    0     1.008  -78.235418  103.801523  196.954817
   6 C     6.0000    0    12.011  -80.654645  107.917913  199.687361
   7 H     1.0000    0     1.008  -81.581745  106.107367  199.443586
   8 H     1.0000    0     1.008  -81.893550  109.073670  198.521400
   9 C     6.0000    0    12.011  -81.181501  108.989199  202.448250
  10 H     1.0000    0     1.008  -80.021209  110.608694  202.890446
  11 H     1.0000    0     1.008  -83.189335  109.602226  202.185579
  12 C     6.0000    0    12.011  -81.114416  106.967759  204.625215
  13 H     1.0000    0     1.008  -81.597430  107.893725  206.399668
  14 H     1.0000    0     1.008  -82.543615  105.437837  204.252939
  15 H     1.0000    0     1.008  -79.321443  106.172751  204.804739
  16 S    16.0000    0    32.060  -70.796889  104.611459  193.700708
  17 C     6.0000    0    12.011  -69.868655  101.543489  193.046863
  18 C     6.0000    0    12.011  -70.645333   99.963111  194.959266
  19 C     6.0000    0    12.011  -72.473076  101.031751  196.578761
  20 C     6.0000    0    12.011  -72.767495  103.524489  196.081763
  21 H     1.0000    0     1.008  -70.210885   97.921640  194.870449
  22 C     6.0000    0    12.011  -73.669462   99.696660  198.874778
  23 H     1.0000    0     1.008  -75.664067   99.349895  198.387229
  24 H     1.0000    0     1.008  -73.739192  100.992823  200.539627
  25 C     6.0000    0    12.011  -72.367818   97.242850  199.830980
  26 H     1.0000    0     1.008  -70.288553   97.279133  199.910348
  27 H     1.0000    0     1.008  -72.704378   95.989017  198.168021
  28 C     6.0000    0    12.011  -73.548897   95.658882  202.206366
  29 H     1.0000    0     1.008  -72.982168   96.371875  204.037510
  30 H     1.0000    0     1.008  -72.974987   93.725314  202.085423
  31 H     1.0000    0     1.008  -75.483221   95.447232  201.898340
  32 H     1.0000    0     1.008  -76.615167  110.936940  200.566083
  33 H     1.0000    0     1.008  -68.651294  100.822369  191.523744

--------------------------------
INTERNAL COORDINATES (ANGSTROEM)
--------------------------------
 S      0   0   0     0.000000000000     0.00000000     0.00000000
 C      1   0   0     1.682010811499     0.00000000     0.00000000
 C      2   1   0     1.367671634567   110.12113415     0.00000000
 C      3   2   1     1.428916963998   113.90029703   351.71649359
 C      4   3   2     1.409355714502   113.25627287     0.30925554
 H      4   3   2     1.095633227864   125.66286718   188.91921600
 C      3   2   1     1.483064924405   122.73474288   168.56745692
 H      7   3   2     1.084105608324   106.78643815   191.80842973
 H      7   3   2     1.088372601640   119.10503509    81.00796875
 C      7   3   2     1.591736802992   117.73282364   316.23689471
 H     10   7   3     1.079907866440   112.45376993    46.68371527
 H     10   7   3     1.119581444112    98.94368272   162.38415564
 C     10   7   3     1.572457420727   115.22687967   277.24887253
 H     13  10   7     1.089565216038   108.67163766   183.00323177
 H     13  10   7     1.125278121177   110.24306201   301.75395004
 H     13  10   7     1.042225949591   111.21854870    63.68753872
 S      5   4   3     2.735761468038   143.69868187   230.33876782
 C     17   5   4     1.731111114285   118.37998531   279.35197507
 C     18  17   5     1.375668088603   109.77483343   343.49916305
 C     19  18  17     1.410572610680   114.08442856    14.94772768
 C     20  19  18     1.354055925728   110.57546365   350.98652504
 H     19  18  17     1.105491338727   120.04383549   180.27227705
 C     20  19  18     1.541487223431   125.22195886   180.16504070
 H     23  20  19     1.101960298740   106.56913647   248.78894348
 H     23  20  19     1.117130887587   110.71739961   135.38317715
 C     23  20  19     1.554536487188   117.22038076    14.04280807
 H     26  23  20     1.101268691101   116.13906883    42.37056025
 H     26  23  20     1.116401298817    99.73980613   294.30727541
 C     26  23  20     1.635008636063   120.60324804   181.67316870
 H     29  26  23     1.082245951713   113.80979310   276.01409842
 H     29  26  23     1.069237078482   109.63289109   154.98841299
 H     29  26  23     1.042530555907   108.07082727    47.37556928
 H      2   1   3     1.083709910447   127.91968945   158.76673921
 H     18  17   5     1.100112812397   129.63566742   170.77591087

---------------------------
INTERNAL COORDINATES (A.U.)
---------------------------
 S      0   0   0     0.000000000000     0.00000000     0.00000000
 C      1   0   0     3.178539788028     0.00000000     0.00000000
 C      2   1   0     2.584524830465   110.12113415     0.00000000
 C      3   2   1     2.700261730070   113.90029703   351.71649359
 C      4   3   2     2.663296325686   113.25627287     0.30925554
 H      4   3   2     2.070446743887   125.66286718   188.91921600
 C      3   2   1     2.802586545950   122.73474288   168.56745692
 H      7   3   2     2.048662699981   106.78643815   191.80842973
 H      7   3   2     2.056726148762   119.10503509    81.00796875
 C      7   3   2     3.007946634939   117.73282364   316.23689471
 H     10   7   3     2.040730117440   112.45376993    46.68371527
 H     10   7   3     2.115702313992    98.94368272   162.38415564
 C     10   7   3     2.971513882427   115.22687967   277.24887253
 H     13  10   7     2.058979863359   108.67163766   183.00323177
 H     13  10   7     2.126467473518   110.24306201   301.75395004
 H     13  10   7     1.969521614392   111.21854870    63.68753872
 S      5   4   3     5.169839942326   143.69868187   230.33876782
 C     17   5   4     3.271325913385   118.37998531   279.35197507
 C     18  17   5     2.599635938634   109.77483343   343.49916305
 C     19  18  17     2.665595926195   114.08442856    14.94772768
 C     20  19  18     2.558794869640   110.57546365   350.98652504
 H     19  18  17     2.089075873616   120.04383549   180.27227705
 C     20  19  18     2.912988691223   125.22195886   180.16504070
 H     23  20  19     2.082403175073   106.56913647   248.78894348
 H     23  20  19     2.111071433283   110.71739961   135.38317715
 C     23  20  19     2.937648225974   117.22038076    14.04280807
 H     26  23  20     2.081096226043   116.13906883    42.37056025
 H     26  23  20     2.109692710318    99.73980613   294.30727541
 C     26  23  20     3.089718548755   120.60324804   181.67316870
 H     29  26  23     2.045148458283   113.80979310   276.01409842
 H     29  26  23     2.020565250564   109.63289109   154.98841299
 H     29  26  23     1.970097236909   108.07082727    47.37556928
 H      2   1   3     2.047914939360   127.91968945   158.76673921
 H     18  17   5     2.078911931848   129.63566742   170.77591087

---------------------
BASIS SET INFORMATION
---------------------
There are 3 groups of distinct atoms

 Group   1 Type S   : 10s7p1d contracted to 4s3p1d pattern {5311/511/1}
 Group   2 Type C   : 7s4p1d contracted to 3s2p1d pattern {511/31/1}
 Group   3 Type H   : 4s1p contracted to 2s1p pattern {31/1}

Atom   0S    basis set group =>   1
Atom   1C    basis set group =>   2
Atom   2C    basis set group =>   2
Atom   3C    basis set group =>   2
Atom   4C    basis set group =>   2
Atom   5H    basis set group =>   3
Atom   6C    basis set group =>   2
Atom   7H    basis set group =>   3
Atom   8H    basis set group =>   3
Atom   9C    basis set group =>   2
Atom  10H    basis set group =>   3
Atom  11H    basis set group =>   3
Atom  12C    basis set group =>   2
Atom  13H    basis set group =>   3
Atom  14H    basis set group =>   3
Atom  15H    basis set group =>   3
Atom  16S    basis set group =>   1
Atom  17C    basis set group =>   2
Atom  18C    basis set group =>   2
Atom  19C    basis set group =>   2
Atom  20C    basis set group =>   2
Atom  21H    basis set group =>   3
Atom  22C    basis set group =>   2
Atom  23H    basis set group =>   3
Atom  24H    basis set group =>   3
Atom  25C    basis set group =>   2
Atom  26H    basis set group =>   3
Atom  27H    basis set group =>   3
Atom  28C    basis set group =>   2
Atom  29H    basis set group =>   3
Atom  30H    basis set group =>   3
Atom  31H    basis set group =>   3
Atom  32H    basis set group =>   3
Atom  33H    basis set group =>   3


           ************************************************************
           *        Program running with 16 parallel MPI-processes    *
           *              working on a common directory               *
           ************************************************************
------------------------------------------------------------------------------
                           ORCA GTO INTEGRAL CALCULATION
------------------------------------------------------------------------------

                         BASIS SET STATISTICS AND STARTUP INFO

 # of primitive gaussian shells          ...  294
 # of primitive gaussian functions       ...  534
 # of contracted shells                  ...  154
 # of contracted basis functions         ...  322
 Highest angular momentum                ...    2
 Maximum contraction depth               ...    5
 Integral package used                   ... LIBINT
 Integral threshhold            Thresh   ...  1.000e-10
 Primitive cut-off              TCut     ...  1.000e-11


------------------------------ INTEGRAL EVALUATION ----------------------------


 * One electron integrals 
 Pre-screening matrix                    ... done
 Shell pair data                         ... done (   0.003 sec)



           ************************************************************
           *        Program running with 16 parallel MPI-processes    *
           *              working on a common directory               *
           ************************************************************
-------------------------------------------------------------------------------
                                 ORCA SCF
-------------------------------------------------------------------------------

------------
SCF SETTINGS
------------
Hamiltonian:
 Density Functional     Method          .... DFT(GTOs)
 Exchange Functional    Exchange        .... WB97X-D3
 Correlation Functional Correlation     .... WB97X-D3
 Gradients option       PostSCFGGA      .... off
 Hybrid DFT is turned on
   Fraction HF Exchange ScalHFX         ....  0.195728
   Scaling of DF-GGA-X  ScalDFX         ....  0.000000
   Scaling of DF-GGA-C  ScalDFC         ....  1.000000
   Scaling of DF-LDA-C  ScalLDAC        ....  1.000000
   Perturbative correction              ....  0.000000
   Density functional embedding theory  .... OFF
 Long-range corrected/Screened/Range-Separated Hybrid DFT is turned on
   Amount of maximum screened exact exchange              ....  0.804272
   Range separation parameter mu (erf(mu*r12)/r12)        ....  0.250000


General Settings:
 Integral files         IntName         .... config_7669
 Hartree-Fock type      HFTyp           .... RHF
 Total Charge           Charge          ....    0
 Multiplicity           Mult            ....    1
 Number of Electrons    NEL             ....  134
 Basis Dimension        Dim             ....  322
 Nuclear Repulsion      ENuc            ....   1269.0841531315 Eh

Convergence Acceleration:
 DIIS                   CNVDIIS         .... on
   Start iteration      DIISMaxIt       ....    12
   Startup error        DIISStart       ....  0.200000
   # of expansion vecs  DIISMaxEq       ....     5
   Bias factor          DIISBfac        ....   1.050
   Max. coefficient     DIISMaxC        ....  10.000
 Newton-Raphson         CNVNR           .... off
 SOSCF                  CNVSOSCF        .... on
   Start iteration      SOSCFMaxIt      ....   150
   Startup grad/error   SOSCFStart      ....  0.003300
 Level Shifting         CNVShift        .... on
   Level shift para.    LevelShift      ....    0.2500
   Turn off err/grad.   ShiftErr        ....    0.0010
 Zerner damping         CNVZerner       .... off
 Static damping         CNVDamp         .... on
   Fraction old density DampFac         ....    0.7000
   Max. Damping (<1)    DampMax         ....    0.9800
   Min. Damping (>=0)   DampMin         ....    0.0000
   Turn off err/grad.   DampErr         ....    0.1000
 Fernandez-Rico         CNVRico         .... off

SCF Procedure:
 Maximum # iterations   MaxIter         ....   125
 SCF integral mode      SCFMode         .... Direct
   Integral package                     .... LIBINT
 Reset frequency        DirectResetFreq ....    20
 Integral Threshold     Thresh          ....  1.000e-10 Eh
 Primitive CutOff       TCut            ....  1.000e-11 Eh

Convergence Tolerance:
 Convergence Check Mode ConvCheckMode   .... Total+1el-Energy
 Convergence forced     ConvForced      .... 0
 Energy Change          TolE            ....  1.000e-06 Eh
 1-El. energy change                    ....  1.000e-03 Eh
 Orbital Gradient       TolG            ....  5.000e-05
 Orbital Rotation angle TolX            ....  5.000e-05
 DIIS Error             TolErr          ....  1.000e-06


Diagonalization of the overlap matrix:
Smallest eigenvalue                        ... 6.880e-04
Time for diagonalization                   ...    0.015 sec
Threshold for overlap eigenvalues          ... 1.000e-08
Number of eigenvalues below threshold      ... 0
Time for construction of square roots      ...    0.033 sec
Total time needed                          ...    0.048 sec

-------------------
DFT GRID GENERATION
-------------------

General Integration Accuracy     IntAcc      ...  4.340
Radial Grid Type                 RadialGrid  ... Gauss-Chebyshev
Angular Grid (max. acc.)         AngularGrid ... Lebedev-110
Angular grid pruning method      GridPruning ... 3 (G Style)
Weight generation scheme         WeightScheme... Becke
Basis function cutoff            BFCut       ...    1.0000e-10
Integration weight cutoff        WCut        ...    1.0000e-14
Grids for H and He will be reduced by one unit

# of grid points (after initial pruning)     ...  41088 (   0.0 sec)
# of grid points (after weights+screening)   ...  37030 (   0.0 sec)
nearest neighbour list constructed           ...    0.0 sec
Grid point re-assignment to atoms done       ...    0.0 sec
Grid point division into batches done        ...    0.0 sec
Reduced shell lists constructed in    0.1 sec

Total number of grid points                  ...    37030
Total number of batches                      ...      594
Average number of points per batch           ...       62
Average number of grid points per atom       ...     1089
Average number of shells per batch           ...    76.67 (49.78%)
Average number of basis functions per batch  ...   151.95 (47.19%)
Average number of large shells per batch     ...    49.10 (64.05%)
Average number of large basis fcns per batch ...   100.64 (66.23%)
Maximum spatial batch extension              ...  15.17, 15.68, 15.84 au
Average spatial batch extension              ...   0.21,  0.21,  0.22 au

Time for grid setup =    0.190 sec

------------------------------
INITIAL GUESS: MODEL POTENTIAL
------------------------------
Loading Hartree-Fock densities                     ... done
Calculating cut-offs                               ... done
Setting up the integral package                    ... done
Initializing the effective Hamiltonian             ... done
Starting the Coulomb interaction                   ... done (   0.0 sec)
Reading the grid                                   ... done
Mapping shells                                     ... done
Starting the XC term evaluation                    ... done (   0.0 sec)
  promolecular density results
     # of electrons  =    133.988606066
     EX              =   -126.707532514
     EC              =     -4.614436567
     EX+EC           =   -131.321969081
Transforming the Hamiltonian                       ... done (   0.0 sec)
Diagonalizing the Hamiltonian                      ... done (   0.0 sec)
Back transforming the eigenvectors                 ... done (   0.0 sec)
Now organizing SCF variables                       ... done
                      ------------------
                      INITIAL GUESS DONE (   0.4 sec)
                      ------------------
--------------
SCF ITERATIONS
--------------
ITER       Energy         Delta-E        Max-DP      RMS-DP      [F,P]     Damp
               ***  Starting incremental Fock matrix formation  ***
  0  -1339.4245232125   0.000000000000 0.06500963  0.00155500  0.1586253 0.7000
  1  -1339.6051177894  -0.180594576851 0.04372498  0.00113576  0.0962088 0.7000
                               ***Turning on DIIS***
  2  -1339.6934161107  -0.088298321325 0.08259881  0.00215462  0.0501830 0.0000
  3  -1339.8278350220  -0.134418911348 0.04296949  0.00097772  0.0372255 0.0000
  4  -1339.8557342558  -0.027899233703 0.00785018  0.00020207  0.0077627 0.0000
                      *** Initiating the SOSCF procedure ***
                           *** Shutting down DIIS ***
                      *** Re-Reading the Fockian *** 
                      *** Removing any level shift *** 
ITER      Energy       Delta-E        Grad      Rot      Max-DP    RMS-DP
  5  -1339.85657743  -0.0008431739  0.001488  0.001488  0.003319  0.000101
               *** Restarting incremental Fock matrix formation ***
  6  -1339.85675294  -0.0001755092  0.001128  0.003143  0.002666  0.000065
  7  -1339.85681202  -0.0000590806  0.000729  0.004343  0.002807  0.000063
  8  -1339.85682744  -0.0000154173  0.000404  0.000749  0.000774  0.000021
  9  -1339.85683198  -0.0000045413  0.000145  0.000355  0.000344  0.000009
 10  -1339.85683245  -0.0000004686  0.000061  0.000194  0.000151  0.000004
                 **** Energy Check signals convergence ****
              ***Rediagonalizing the Fockian in SOSCF/NRSCF***

               *****************************************************
               *                     SUCCESS                       *
               *           SCF CONVERGED AFTER  11 CYCLES          *
               *****************************************************

Setting up the final grid:

General Integration Accuracy     IntAcc      ...  4.670
Radial Grid Type                 RadialGrid  ... Gauss-Chebyshev
Angular Grid (max. acc.)         AngularGrid ... Lebedev-302
Angular grid pruning method      GridPruning ... 3 (G Style)
Weight generation scheme         WeightScheme... Becke
Basis function cutoff            BFCut       ...    1.0000e-10
Integration weight cutoff        WCut        ...    1.0000e-14
Grids for H and He will be reduced by one unit

# of grid points (after initial pruning)     ... 161752 (   0.0 sec)
# of grid points (after weights+screening)   ... 143165 (   0.2 sec)
nearest neighbour list constructed           ...    0.0 sec
Grid point re-assignment to atoms done       ...    0.0 sec
Grid point division into batches done        ...    0.5 sec
Reduced shell lists constructed in    0.6 sec

Total number of grid points                  ...   143165
Total number of batches                      ...     2254
Average number of points per batch           ...       63
Average number of grid points per atom       ...     4211
Average number of shells per batch           ...    69.69 (45.25%)
Average number of basis functions per batch  ...   137.89 (42.82%)
Average number of large shells per batch     ...    43.96 (63.09%)
Average number of large basis fcns per batch ...    90.05 (65.31%)
Maximum spatial batch extension              ...  12.55, 12.54, 13.78 au
Average spatial batch extension              ...   0.13,  0.14,  0.15 au

Final grid set up in    1.0 sec
Final integration                            ... done (   0.3 sec)
Change in XC energy                          ...     0.007088228
Integrated number of electrons               ...   133.999991974
Previous integrated no of electrons          ...   134.000203839

----------------
TOTAL SCF ENERGY
----------------

Total Energy       :        -1339.84974446 Eh          -36459.16509 eV

Components:
Nuclear Repulsion  :         1269.08415313 Eh           34533.53546 eV
Electronic Energy  :        -2608.93389759 Eh          -70992.70055 eV
One Electron Energy:        -4354.81334520 Eh         -118500.49557 eV
Two Electron Energy:         1745.87944761 Eh           47507.79502 eV

Virial components:
Potential Energy   :        -2671.33375605 Eh          -72690.68703 eV
Kinetic Energy     :         1331.48401159 Eh           36231.52193 eV
Virial Ratio       :            2.00628301


DFT components:
N(Alpha)           :       66.999995986839 electrons
N(Beta)            :       66.999995986839 electrons
N(Total)           :      133.999991973679 electrons
E(XC)              :      -94.242664709894 Eh       
DFET-embed. en.    :        0.000000000000 Eh       

---------------
SCF CONVERGENCE
---------------

  Last Energy change         ...   -2.4367e-07  Tolerance :   1.0000e-06
  Last MAX-Density change    ...    3.7172e-05  Tolerance :   1.0000e-05
  Last RMS-Density change    ...    6.5546e-07  Tolerance :   1.0000e-06
  Last Orbital Gradient      ...    7.7582e-06  Tolerance :   5.0000e-05
  Last Orbital Rotation      ...    1.8636e-05  Tolerance :   5.0000e-05

             **** THE GBW FILE WAS UPDATED (config_7669.gbw) ****
             **** DENSITY FILE WAS UPDATED (config_7669.scfp) ****
             **** ENERGY FILE WAS UPDATED (config_7669.en.tmp) ****
             **** THE GBW FILE WAS UPDATED (config_7669.gbw) ****
             **** DENSITY FILE WAS UPDATED (config_7669.scfp) ****
----------------
ORBITAL ENERGIES
----------------

  NO   OCC          E(Eh)            E(eV) 
   0   2.0000     -88.967289     -2420.9230 
   1   2.0000     -88.963427     -2420.8179 
   2   2.0000     -10.331193      -281.1260 
   3   2.0000     -10.321813      -280.8708 
   4   2.0000     -10.317705      -280.7590 
   5   2.0000     -10.304132      -280.3897 
   6   2.0000     -10.301568      -280.3199 
   7   2.0000     -10.299864      -280.2735 
   8   2.0000     -10.297979      -280.2223 
   9   2.0000     -10.296800      -280.1902 
  10   2.0000     -10.294686      -280.1327 
  11   2.0000     -10.293585      -280.1027 
  12   2.0000     -10.292704      -280.0787 
  13   2.0000     -10.288008      -279.9509 
  14   2.0000     -10.281127      -279.7637 
  15   2.0000     -10.277812      -279.6735 
  16   2.0000      -8.082665      -219.9405 
  17   2.0000      -8.079013      -219.8411 
  18   2.0000      -6.041079      -164.3861 
  19   2.0000      -6.037403      -164.2861 
  20   2.0000      -6.037158      -164.2794 
  21   2.0000      -6.033388      -164.1768 
  22   2.0000      -6.033241      -164.1728 
  23   2.0000      -6.030000      -164.0846 
  24   2.0000      -1.013831       -27.5877 
  25   2.0000      -0.993170       -27.0255 
  26   2.0000      -0.904542       -24.6138 
  27   2.0000      -0.898769       -24.4567 
  28   2.0000      -0.868767       -23.6403 
  29   2.0000      -0.848914       -23.1001 
  30   2.0000      -0.844360       -22.9762 
  31   2.0000      -0.814766       -22.1709 
  32   2.0000      -0.786354       -21.3978 
  33   2.0000      -0.774373       -21.0718 
  34   2.0000      -0.706589       -19.2273 
  35   2.0000      -0.705375       -19.1942 
  36   2.0000      -0.697705       -18.9855 
  37   2.0000      -0.654315       -17.8048 
  38   2.0000      -0.636976       -17.3330 
  39   2.0000      -0.611435       -16.6380 
  40   2.0000      -0.596462       -16.2306 
  41   2.0000      -0.580101       -15.7854 
  42   2.0000      -0.560441       -15.2504 
  43   2.0000      -0.539140       -14.6707 
  44   2.0000      -0.533942       -14.5293 
  45   2.0000      -0.519162       -14.1271 
  46   2.0000      -0.517505       -14.0820 
  47   2.0000      -0.510495       -13.8913 
  48   2.0000      -0.505686       -13.7604 
  49   2.0000      -0.503242       -13.6939 
  50   2.0000      -0.488696       -13.2981 
  51   2.0000      -0.477321       -12.9886 
  52   2.0000      -0.474659       -12.9161 
  53   2.0000      -0.472425       -12.8553 
  54   2.0000      -0.462374       -12.5818 
  55   2.0000      -0.454518       -12.3681 
  56   2.0000      -0.443728       -12.0745 
  57   2.0000      -0.438373       -11.9287 
  58   2.0000      -0.429557       -11.6888 
  59   2.0000      -0.424346       -11.5470 
  60   2.0000      -0.417261       -11.3542 
  61   2.0000      -0.415949       -11.3186 
  62   2.0000      -0.405302       -11.0288 
  63   2.0000      -0.347472        -9.4552 
  64   2.0000      -0.333894        -9.0857 
  65   2.0000      -0.324879        -8.8404 
  66   2.0000      -0.293968        -7.9993 
  67   0.0000       0.033876         0.9218 
  68   0.0000       0.064374         1.7517 
  69   0.0000       0.117443         3.1958 
  70   0.0000       0.123280         3.3546 
  71   0.0000       0.136894         3.7251 
  72   0.0000       0.139365         3.7923 
  73   0.0000       0.146472         3.9857 
  74   0.0000       0.158829         4.3219 
  75   0.0000       0.162151         4.4124 
  76   0.0000       0.169069         4.6006 
  77   0.0000       0.176025         4.7899 
  78   0.0000       0.188922         5.1408 
  79   0.0000       0.190907         5.1948 
  80   0.0000       0.198670         5.4061 
  81   0.0000       0.202664         5.5148 
  82   0.0000       0.213428         5.8077 
  83   0.0000       0.222005         6.0411 
  84   0.0000       0.226686         6.1684 
  85   0.0000       0.231277         6.2934 
  86   0.0000       0.238882         6.5003 
  87   0.0000       0.242072         6.5871 
  88   0.0000       0.250049         6.8042 
  89   0.0000       0.254650         6.9294 
  90   0.0000       0.258087         7.0229 
  91   0.0000       0.266749         7.2586 
  92   0.0000       0.274463         7.4685 
  93   0.0000       0.289133         7.8677 
  94   0.0000       0.296641         8.0720 
  95   0.0000       0.306637         8.3440 
  96   0.0000       0.320291         8.7156 
  97   0.0000       0.327704         8.9173 
  98   0.0000       0.340548         9.2668 
  99   0.0000       0.377565        10.2741 
 100   0.0000       0.389998        10.6124 
 101   0.0000       0.400129        10.8881 
 102   0.0000       0.417861        11.3706 
 103   0.0000       0.426576        11.6077 
 104   0.0000       0.433569        11.7980 
 105   0.0000       0.453398        12.3376 
 106   0.0000       0.468567        12.7504 
 107   0.0000       0.470372        12.7995 
 108   0.0000       0.481776        13.1098 
 109   0.0000       0.488244        13.2858 
 110   0.0000       0.507736        13.8162 
 111   0.0000       0.509530        13.8650 
 112   0.0000       0.511463        13.9176 
 113   0.0000       0.520694        14.1688 
 114   0.0000       0.530511        14.4359 
 115   0.0000       0.535867        14.5817 
 116   0.0000       0.545650        14.8479 
 117   0.0000       0.551441        15.0055 
 118   0.0000       0.561274        15.2730 
 119   0.0000       0.563770        15.3409 
 120   0.0000       0.576552        15.6888 
 121   0.0000       0.577208        15.7066 
 122   0.0000       0.592018        16.1096 
 123   0.0000       0.607188        16.5224 
 124   0.0000       0.613784        16.7019 
 125   0.0000       0.624803        17.0017 
 126   0.0000       0.637944        17.3593 
 127   0.0000       0.641330        17.4515 
 128   0.0000       0.651390        17.7252 
 129   0.0000       0.656972        17.8771 
 130   0.0000       0.658735        17.9251 
 131   0.0000       0.676000        18.3949 
 132   0.0000       0.677371        18.4322 
 133   0.0000       0.694119        18.8879 
 134   0.0000       0.696034        18.9401 
 135   0.0000       0.707671        19.2567 
 136   0.0000       0.717246        19.5173 
 137   0.0000       0.718882        19.5618 
 138   0.0000       0.728793        19.8315 
 139   0.0000       0.733048        19.9473 
 140   0.0000       0.740657        20.1543 
 141   0.0000       0.745772        20.2935 
 142   0.0000       0.749419        20.3927 
 143   0.0000       0.755714        20.5640 
 144   0.0000       0.762517        20.7491 
 145   0.0000       0.766628        20.8610 
 146   0.0000       0.769168        20.9301 
 147   0.0000       0.776566        21.1314 
 148   0.0000       0.783033        21.3074 
 149   0.0000       0.785474        21.3738 
 150   0.0000       0.786917        21.4131 
 151   0.0000       0.788324        21.4514 
 152   0.0000       0.794174        21.6106 
 153   0.0000       0.795502        21.6467 
 154   0.0000       0.803062        21.8524 
 155   0.0000       0.811266        22.0757 
 156   0.0000       0.813095        22.1254 
 157   0.0000       0.815739        22.1974 
 158   0.0000       0.816044        22.2057 
 159   0.0000       0.817728        22.2515 
 160   0.0000       0.827211        22.5095 
 161   0.0000       0.836639        22.7661 
 162   0.0000       0.840279        22.8652 
 163   0.0000       0.843684        22.9578 
 164   0.0000       0.850884        23.1537 
 165   0.0000       0.856709        23.3122 
 166   0.0000       0.865949        23.5637 
 167   0.0000       0.874297        23.7908 
 168   0.0000       0.886559        24.1245 
 169   0.0000       0.899227        24.4692 
 170   0.0000       0.901039        24.5185 
 171   0.0000       0.914251        24.8780 
 172   0.0000       0.929942        25.3050 
 173   0.0000       0.938376        25.5345 
 174   0.0000       0.951207        25.8836 
 175   0.0000       0.957932        26.0667 
 176   0.0000       0.975660        26.5490 
 177   0.0000       0.988841        26.9077 
 178   0.0000       1.013588        27.5811 
 179   0.0000       1.020097        27.7583 
 180   0.0000       1.056884        28.7593 
 181   0.0000       1.067418        29.0459 
 182   0.0000       1.093828        29.7646 
 183   0.0000       1.114772        30.3345 
 184   0.0000       1.122521        30.5454 
 185   0.0000       1.134047        30.8590 
 186   0.0000       1.142672        31.0937 
 187   0.0000       1.160589        31.5812 
 188   0.0000       1.178407        32.0661 
 189   0.0000       1.184063        32.2200 
 190   0.0000       1.186806        32.2946 
 191   0.0000       1.223172        33.2842 
 192   0.0000       1.241118        33.7725 
 193   0.0000       1.261032        34.3144 
 194   0.0000       1.265796        34.4441 
 195   0.0000       1.288202        35.0537 
 196   0.0000       1.305620        35.5277 
 197   0.0000       1.313406        35.7396 
 198   0.0000       1.328992        36.1637 
 199   0.0000       1.390023        37.8245 
 200   0.0000       1.397127        38.0178 
 201   0.0000       1.417942        38.5842 
 202   0.0000       1.443994        39.2931 
 203   0.0000       1.446950        39.3735 
 204   0.0000       1.460333        39.7377 
 205   0.0000       1.462812        39.8051 
 206   0.0000       1.494805        40.6757 
 207   0.0000       1.514821        41.2204 
 208   0.0000       1.534756        41.7628 
 209   0.0000       1.565646        42.6034 
 210   0.0000       1.579506        42.9806 
 211   0.0000       1.606713        43.7209 
 212   0.0000       1.620842        44.1053 
 213   0.0000       1.641906        44.6785 
 214   0.0000       1.645025        44.7634 
 215   0.0000       1.652803        44.9751 
 216   0.0000       1.660498        45.1845 
 217   0.0000       1.688167        45.9374 
 218   0.0000       1.742232        47.4086 
 219   0.0000       1.746250        47.5179 
 220   0.0000       1.763661        47.9917 
 221   0.0000       1.785735        48.5923 
 222   0.0000       1.798001        48.9261 
 223   0.0000       1.812774        49.3281 
 224   0.0000       1.823010        49.6066 
 225   0.0000       1.835271        49.9403 
 226   0.0000       1.836076        49.9622 
 227   0.0000       1.848470        50.2994 
 228   0.0000       1.857779        50.5527 
 229   0.0000       1.860628        50.6303 
 230   0.0000       1.868903        50.8554 
 231   0.0000       1.874964        51.0204 
 232   0.0000       1.878824        51.1254 
 233   0.0000       1.890105        51.4324 
 234   0.0000       1.901600        51.7452 
 235   0.0000       1.910171        51.9784 
 236   0.0000       1.916142        52.1409 
 237   0.0000       1.921127        52.2765 
 238   0.0000       1.933974        52.6261 
 239   0.0000       1.937471        52.7213 
 240   0.0000       1.942845        52.8675 
 241   0.0000       1.947791        53.0021 
 242   0.0000       1.963316        53.4245 
 243   0.0000       1.966524        53.5118 
 244   0.0000       1.972848        53.6839 
 245   0.0000       1.981363        53.9156 
 246   0.0000       1.986727        54.0616 
 247   0.0000       2.006769        54.6070 
 248   0.0000       2.023521        55.0628 
 249   0.0000       2.034671        55.3662 
 250   0.0000       2.040241        55.5178 
 251   0.0000       2.055672        55.9377 
 252   0.0000       2.083869        56.7049 
 253   0.0000       2.089161        56.8490 
 254   0.0000       2.096368        57.0451 
 255   0.0000       2.110274        57.4235 
 256   0.0000       2.119610        57.6775 
 257   0.0000       2.126795        57.8730 
 258   0.0000       2.139863        58.2286 
 259   0.0000       2.143495        58.3275 
 260   0.0000       2.152722        58.5785 
 261   0.0000       2.163029        58.8590 
 262   0.0000       2.191278        59.6277 
 263   0.0000       2.211460        60.1769 
 264   0.0000       2.221334        60.4456 
 265   0.0000       2.233258        60.7700 
 266   0.0000       2.259291        61.4784 
 267   0.0000       2.279485        62.0279 
 268   0.0000       2.288153        62.2638 
 269   0.0000       2.297203        62.5101 
 270   0.0000       2.320376        63.1406 
 271   0.0000       2.350052        63.9482 
 272   0.0000       2.373299        64.5807 
 273   0.0000       2.395052        65.1727 
 274   0.0000       2.401040        65.3356 
 275   0.0000       2.408623        65.5420 
 276   0.0000       2.431409        66.1620 
 277   0.0000       2.446165        66.5635 
 278   0.0000       2.473153        67.2979 
 279   0.0000       2.483222        67.5719 
 280   0.0000       2.490327        67.7652 
 281   0.0000       2.497134        67.9505 
 282   0.0000       2.499659        68.0192 
 283   0.0000       2.516453        68.4762 
 284   0.0000       2.523022        68.6549 
 285   0.0000       2.530379        68.8551 
 286   0.0000       2.575287        70.0771 
 287   0.0000       2.591623        70.5216 
 288   0.0000       2.614110        71.1336 
 289   0.0000       2.627569        71.4998 
 290   0.0000       2.643548        71.9346 
 291   0.0000       2.646168        72.0059 
 292   0.0000       2.674715        72.7827 
 293   0.0000       2.697477        73.4021 
 294   0.0000       2.704355        73.5892 
 295   0.0000       2.734729        74.4158 
 296   0.0000       2.751834        74.8812 
 297   0.0000       2.758205        75.0546 
 298   0.0000       2.795514        76.0698 
 299   0.0000       2.799672        76.1829 
 300   0.0000       2.829157        76.9853 
 301   0.0000       2.853396        77.6448 
 302   0.0000       2.857969        77.7693 
 303   0.0000       2.924991        79.5930 
 304   0.0000       2.943533        80.0976 
 305   0.0000       2.971049        80.8464 
 306   0.0000       2.987032        81.2813 
 307   0.0000       3.004977        81.7696 
 308   0.0000       3.008999        81.8790 
 309   0.0000       3.036331        82.6228 
 310   0.0000       3.039599        82.7117 
 311   0.0000       3.076821        83.7246 
 312   0.0000       3.090886        84.1073 
 313   0.0000       3.101517        84.3966 
 314   0.0000       3.125255        85.0425 
 315   0.0000       3.150988        85.7427 
 316   0.0000       3.175611        86.4128 
 317   0.0000       3.183622        86.6308 
 318   0.0000       3.220775        87.6417 
 319   0.0000       3.248601        88.3989 
 320   0.0000       3.351873        91.2091 
 321   0.0000       3.425689        93.2177 

                    ********************************
                    * MULLIKEN POPULATION ANALYSIS *
                    ********************************

-----------------------
MULLIKEN ATOMIC CHARGES
-----------------------
   0 S :    0.113741
   1 C :   -0.096869
   2 C :   -0.094018
   3 C :    0.033458
   4 C :   -0.168387
   5 H :    0.020603
   6 C :    0.060332
   7 H :    0.001739
   8 H :    0.034302
   9 C :   -0.115816
  10 H :    0.033007
  11 H :    0.030895
  12 C :   -0.030613
  13 H :    0.034319
  14 H :    0.034748
  15 H :    0.029603
  16 S :    0.132033
  17 C :   -0.089647
  18 C :   -0.067683
  19 C :   -0.012750
  20 C :   -0.180797
  21 H :    0.028541
  22 C :    0.075554
  23 H :    0.034037
  24 H :    0.046655
  25 C :   -0.149654
  26 H :    0.043831
  27 H :    0.026185
  28 C :   -0.000906
  29 H :    0.046802
  30 H :    0.021366
  31 H :    0.016707
  32 H :    0.046014
  33 H :    0.062671
Sum of atomic charges:   -0.0000000

--------------------------------
MULLIKEN REDUCED ORBITAL CHARGES
--------------------------------
  0 S s       :     5.836053  s :     5.836053
      pz      :     3.502533  p :     9.932165
      px      :     3.287340
      py      :     3.142292
      dz2     :     0.018927  d :     0.118041
      dxz     :     0.018592
      dyz     :     0.019528
      dx2y2   :     0.030536
      dxy     :     0.030458
  1 C s       :     3.151016  s :     3.151016
      pz      :     1.063722  p :     2.909200
      px      :     0.870358
      py      :     0.975120
      dz2     :     0.003371  d :     0.036653
      dxz     :     0.007661
      dyz     :     0.005373
      dx2y2   :     0.009528
      dxy     :     0.010720
  2 C s       :     3.073557  s :     3.073557
      pz      :     0.995958  p :     2.975010
      px      :     0.994324
      py      :     0.984728
      dz2     :     0.005479  d :     0.045451
      dxz     :     0.007910
      dyz     :     0.006612
      dx2y2   :     0.012054
      dxy     :     0.013397
  3 C s       :     3.188508  s :     3.188508
      pz      :     0.982427  p :     2.744732
      px      :     0.869663
      py      :     0.892642
      dz2     :     0.003879  d :     0.033302
      dxz     :     0.006439
      dyz     :     0.004636
      dx2y2   :     0.009271
      dxy     :     0.009078
  4 C s       :     3.088684  s :     3.088684
      pz      :     1.048007  p :     3.036607
      px      :     0.977076
      py      :     1.011524
      dz2     :     0.005189  d :     0.043096
      dxz     :     0.008861
      dyz     :     0.006768
      dx2y2   :     0.010527
      dxy     :     0.011751
  5 H s       :     0.956365  s :     0.956365
      pz      :     0.006319  p :     0.023031
      px      :     0.006783
      py      :     0.009929
  6 C s       :     2.962706  s :     2.962706
      pz      :     0.978101  p :     2.941666
      px      :     0.963413
      py      :     1.000153
      dz2     :     0.006762  d :     0.035296
      dxz     :     0.008936
      dyz     :     0.005358
      dx2y2   :     0.006286
      dxy     :     0.007953
  7 H s       :     0.974718  s :     0.974718
      pz      :     0.004295  p :     0.023543
      px      :     0.006480
      py      :     0.012768
  8 H s       :     0.941140  s :     0.941140
      pz      :     0.007751  p :     0.024558
      px      :     0.007523
      py      :     0.009284
  9 C s       :     3.099404  s :     3.099404
      pz      :     0.953763  p :     2.982467
      px      :     1.010393
      py      :     1.018311
      dz2     :     0.010270  d :     0.033944
      dxz     :     0.003625
      dyz     :     0.008219
      dx2y2   :     0.004971
      dxy     :     0.006859
 10 H s       :     0.944444  s :     0.944444
      pz      :     0.004121  p :     0.022550
      px      :     0.008138
      py      :     0.010291
 11 H s       :     0.947379  s :     0.947379
      pz      :     0.004440  p :     0.021726
      px      :     0.012717
      py      :     0.004569
 12 C s       :     3.010746  s :     3.010746
      pz      :     0.976970  p :     2.992586
      px      :     1.026151
      py      :     0.989465
      dz2     :     0.006953  d :     0.027281
      dxz     :     0.002217
      dyz     :     0.006700
      dx2y2   :     0.003541
      dxy     :     0.007871
 13 H s       :     0.942036  s :     0.942036
      pz      :     0.011417  p :     0.023645
      px      :     0.005744
      py      :     0.006484
 14 H s       :     0.943264  s :     0.943264
      pz      :     0.004225  p :     0.021988
      px      :     0.008907
      py      :     0.008856
 15 H s       :     0.944551  s :     0.944551
      pz      :     0.005318  p :     0.025846
      px      :     0.013719
      py      :     0.006809
 16 S s       :     5.844850  s :     5.844850
      pz      :     3.303176  p :     9.911089
      px      :     3.364731
      py      :     3.243182
      dz2     :     0.024351  d :     0.112029
      dxz     :     0.017253
      dyz     :     0.021673
      dx2y2   :     0.027229
      dxy     :     0.021524
 17 C s       :     3.146742  s :     3.146742
      pz      :     1.001498  p :     2.907337
      px      :     1.039013
      py      :     0.866826
      dz2     :     0.007346  d :     0.035568
      dxz     :     0.005271
      dyz     :     0.008722
      dx2y2   :     0.006891
      dxy     :     0.007337
 18 C s       :     3.183038  s :     3.183038
      pz      :     0.956311  p :     2.848509
      px      :     1.004432
      py      :     0.887766
      dz2     :     0.008390  d :     0.036135
      dxz     :     0.005945
      dyz     :     0.007962
      dx2y2   :     0.007920
      dxy     :     0.005918
 19 C s       :     3.043816  s :     3.043816
      pz      :     0.981450  p :     2.924399
      px      :     0.966033
      py      :     0.976915
      dz2     :     0.009218  d :     0.044536
      dxz     :     0.006551
      dyz     :     0.010442
      dx2y2   :     0.009699
      dxy     :     0.008626
 20 C s       :     3.065548  s :     3.065548
      pz      :     1.014657  p :     3.069270
      px      :     1.025768
      py      :     1.028846
      dz2     :     0.008567  d :     0.045979
      dxz     :     0.007200
      dyz     :     0.010107
      dx2y2   :     0.008146
      dxy     :     0.011959
 21 H s       :     0.948777  s :     0.948777
      pz      :     0.003727  p :     0.022682
      px      :     0.004504
      py      :     0.014451
 22 C s       :     2.953114  s :     2.953114
      pz      :     0.957662  p :     2.937355
      px      :     1.008864
      py      :     0.970829
      dz2     :     0.006425  d :     0.033978
      dxz     :     0.004609
      dyz     :     0.009984
      dx2y2   :     0.008096
      dxy     :     0.004864
 23 H s       :     0.943426  s :     0.943426
      pz      :     0.005037  p :     0.022538
      px      :     0.013156
      py      :     0.004344
 24 H s       :     0.931118  s :     0.931118
      pz      :     0.010045  p :     0.022227
      px      :     0.004391
      py      :     0.007791
 25 C s       :     3.113384  s :     3.113384
      pz      :     0.985377  p :     3.003153
      px      :     1.022052
      py      :     0.995724
      dz2     :     0.006154  d :     0.033117
      dxz     :     0.003251
      dyz     :     0.010393
      dx2y2   :     0.008952
      dxy     :     0.004366
 26 H s       :     0.933993  s :     0.933993
      pz      :     0.004410  p :     0.022176
      px      :     0.014076
      py      :     0.003690
 27 H s       :     0.951436  s :     0.951436
      pz      :     0.009408  p :     0.022379
      px      :     0.005124
      py      :     0.007847
 28 C s       :     2.984104  s :     2.984104
      pz      :     0.978851  p :     2.990153
      px      :     1.017200
      py      :     0.994102
      dz2     :     0.008835  d :     0.026650
      dxz     :     0.002771
      dyz     :     0.003897
      dx2y2   :     0.008563
      dxy     :     0.002585
 29 H s       :     0.929049  s :     0.929049
      pz      :     0.012324  p :     0.024149
      px      :     0.005554
      py      :     0.006271
 30 H s       :     0.953447  s :     0.953447
      pz      :     0.004724  p :     0.025187
      px      :     0.006963
      py      :     0.013500
 31 H s       :     0.956893  s :     0.956893
      pz      :     0.005040  p :     0.026399
      px      :     0.014995
      py      :     0.006364
 32 H s       :     0.929558  s :     0.929558
      pz      :     0.009089  p :     0.024428
      px      :     0.003802
      py      :     0.011536
 33 H s       :     0.914252  s :     0.914252
      pz      :     0.010151  p :     0.023077
      px      :     0.008582
      py      :     0.004344


                     *******************************
                     * LOEWDIN POPULATION ANALYSIS *
                     *******************************

----------------------
LOEWDIN ATOMIC CHARGES
----------------------
   0 S :    0.430435
   1 C :   -0.220665
   2 C :   -0.075651
   3 C :   -0.065053
   4 C :   -0.190441
   5 H :    0.033479
   6 C :   -0.039250
   7 H :    0.027743
   8 H :    0.032790
   9 C :   -0.035100
  10 H :    0.017059
  11 H :    0.028389
  12 C :   -0.061112
  13 H :    0.026239
  14 H :    0.030481
  15 H :    0.016078
  16 S :    0.427694
  17 C :   -0.193168
  18 C :   -0.079164
  19 C :   -0.056666
  20 C :   -0.209225
  21 H :    0.034407
  22 C :   -0.033723
  23 H :    0.034077
  24 H :    0.034609
  25 C :   -0.049419
  26 H :    0.024811
  27 H :    0.023326
  28 C :   -0.054508
  29 H :    0.025702
  30 H :    0.027684
  31 H :    0.018910
  32 H :    0.031033
  33 H :    0.038202

-------------------------------
LOEWDIN REDUCED ORBITAL CHARGES
-------------------------------
  0 S s       :     5.478202  s :     5.478202
      pz      :     3.470699  p :     9.943651
      px      :     3.328987
      py      :     3.143965
      dz2     :     0.023070  d :     0.147711
      dxz     :     0.021080
      dyz     :     0.025824
      dx2y2   :     0.039189
      dxy     :     0.038548
  1 C s       :     2.915861  s :     2.915861
      pz      :     1.096630  p :     3.216628
      px      :     1.033594
      py      :     1.086404
      dz2     :     0.007732  d :     0.088176
      dxz     :     0.016773
      dyz     :     0.010943
      dx2y2   :     0.024241
      dxy     :     0.028487
  2 C s       :     2.852478  s :     2.852478
      pz      :     1.000866  p :     3.107942
      px      :     1.059196
      py      :     1.047880
      dz2     :     0.011764  d :     0.115231
      dxz     :     0.018417
      dyz     :     0.015786
      dx2y2   :     0.032917
      dxy     :     0.036347
  3 C s       :     2.875485  s :     2.875485
      pz      :     1.023956  p :     3.102081
      px      :     1.040272
      py      :     1.037853
      dz2     :     0.008835  d :     0.087488
      dxz     :     0.015305
      dyz     :     0.010555
      dx2y2   :     0.027461
      dxy     :     0.025332
  4 C s       :     2.917868  s :     2.917868
      pz      :     1.064683  p :     3.170850
      px      :     1.083730
      py      :     1.022437
      dz2     :     0.011057  d :     0.101723
      dxz     :     0.020106
      dyz     :     0.014548
      dx2y2   :     0.027517
      dxy     :     0.028495
  5 H s       :     0.898416  s :     0.898416
      pz      :     0.018522  p :     0.068106
      px      :     0.020474
      py      :     0.029110
  6 C s       :     2.826073  s :     2.826073
      pz      :     1.030866  p :     3.124667
      px      :     1.023844
      py      :     1.069956
      dz2     :     0.018149  d :     0.088510
      dxz     :     0.020148
      dyz     :     0.012982
      dx2y2   :     0.017157
      dxy     :     0.020074
  7 H s       :     0.903154  s :     0.903154
      pz      :     0.014743  p :     0.069103
      px      :     0.019297
      py      :     0.035062
  8 H s       :     0.897372  s :     0.897372
      pz      :     0.023189  p :     0.069838
      px      :     0.023167
      py      :     0.023482
  9 C s       :     2.855945  s :     2.855945
      pz      :     0.998094  p :     3.099374
      px      :     1.057051
      py      :     1.044228
      dz2     :     0.023519  d :     0.079782
      dxz     :     0.007280
      dyz     :     0.020472
      dx2y2   :     0.012236
      dxy     :     0.016274
 10 H s       :     0.913420  s :     0.913420
      pz      :     0.015012  p :     0.069521
      px      :     0.022833
      py      :     0.031676
 11 H s       :     0.908745  s :     0.908745
      pz      :     0.013101  p :     0.062866
      px      :     0.035930
      py      :     0.013835
 12 C s       :     2.836241  s :     2.836241
      pz      :     1.035700  p :     3.155896
      px      :     1.076957
      py      :     1.043239
      dz2     :     0.017259  d :     0.068974
      dxz     :     0.004821
      dyz     :     0.018545
      dx2y2   :     0.008805
      dxy     :     0.019544
 13 H s       :     0.907362  s :     0.907362
      pz      :     0.033503  p :     0.066400
      px      :     0.014407
      py      :     0.018490
 14 H s       :     0.909667  s :     0.909667
      pz      :     0.011727  p :     0.059852
      px      :     0.023017
      py      :     0.025108
 15 H s       :     0.908232  s :     0.908232
      pz      :     0.016442  p :     0.075689
      px      :     0.038929
      py      :     0.020318
 16 S s       :     5.496052  s :     5.496052
      pz      :     3.304904  p :     9.936956
      px      :     3.347198
      py      :     3.284854
      dz2     :     0.030614  d :     0.139299
      dxz     :     0.023643
      dyz     :     0.025680
      dx2y2   :     0.033798
      dxy     :     0.025563
 17 C s       :     2.933606  s :     2.933606
      pz      :     1.085582  p :     3.176695
      px      :     1.075273
      py      :     1.015839
      dz2     :     0.016214  d :     0.082868
      dxz     :     0.011055
      dyz     :     0.022959
      dx2y2   :     0.016228
      dxy     :     0.016412
 18 C s       :     2.868962  s :     2.868962
      pz      :     1.036277  p :     3.116155
      px      :     1.032985
      py      :     1.046894
      dz2     :     0.020317  d :     0.094047
      dxz     :     0.015068
      dyz     :     0.023195
      dx2y2   :     0.020668
      dxy     :     0.014799
 19 C s       :     2.851282  s :     2.851282
      pz      :     1.018381  p :     3.093469
      px      :     1.008898
      py      :     1.066190
      dz2     :     0.020478  d :     0.111915
      dxz     :     0.016135
      dyz     :     0.027649
      dx2y2   :     0.026541
      dxy     :     0.021112
 20 C s       :     2.892950  s :     2.892950
      pz      :     1.062573  p :     3.204035
      px      :     1.052805
      py      :     1.088657
      dz2     :     0.019396  d :     0.112240
      dxz     :     0.015460
      dyz     :     0.025912
      dx2y2   :     0.022028
      dxy     :     0.029444
 21 H s       :     0.899117  s :     0.899117
      pz      :     0.011702  p :     0.066476
      px      :     0.014235
      py      :     0.040538
 22 C s       :     2.839932  s :     2.839932
      pz      :     1.024066  p :     3.110335
      px      :     1.050761
      py      :     1.035508
      dz2     :     0.015396  d :     0.083456
      dxz     :     0.011257
      dyz     :     0.025631
      dx2y2   :     0.018953
      dxy     :     0.012220
 23 H s       :     0.899682  s :     0.899682
      pz      :     0.014300  p :     0.066242
      px      :     0.038351
      py      :     0.013591
 24 H s       :     0.901122  s :     0.901122
      pz      :     0.028833  p :     0.064269
      px      :     0.012156
      py      :     0.023281
 25 C s       :     2.861667  s :     2.861667
      pz      :     1.029086  p :     3.110755
      px      :     1.053210
      py      :     1.028459
      dz2     :     0.013833  d :     0.076998
      dxz     :     0.007190
      dyz     :     0.024187
      dx2y2   :     0.021275
      dxy     :     0.010512
 26 H s       :     0.908296  s :     0.908296
      pz      :     0.013199  p :     0.066893
      px      :     0.040944
      py      :     0.012750
 27 H s       :     0.911608  s :     0.911608
      pz      :     0.028518  p :     0.065066
      px      :     0.013568
      py      :     0.022980
 28 C s       :     2.828817  s :     2.828817
      pz      :     1.027634  p :     3.159004
      px      :     1.079546
      py      :     1.051824
      dz2     :     0.020224  d :     0.066687
      dxz     :     0.007805
      dyz     :     0.011251
      dx2y2   :     0.020941
      dxy     :     0.006465
 29 H s       :     0.906425  s :     0.906425
      pz      :     0.035915  p :     0.067873
      px      :     0.015247
      py      :     0.016711
 30 H s       :     0.901798  s :     0.901798
      pz      :     0.013990  p :     0.070518
      px      :     0.017944
      py      :     0.038584
 31 H s       :     0.904652  s :     0.904652
      pz      :     0.016012  p :     0.076438
      px      :     0.042566
      py      :     0.017860
 32 H s       :     0.893433  s :     0.893433
      pz      :     0.027633  p :     0.075534
      px      :     0.014100
      py      :     0.033800
 33 H s       :     0.890128  s :     0.890128
      pz      :     0.029363  p :     0.071670
      px      :     0.026557
      py      :     0.015750


                      *****************************
                      * MAYER POPULATION ANALYSIS *
                      *****************************

  NA   - Mulliken gross atomic population
  ZA   - Total nuclear charge
  QA   - Mulliken gross atomic charge
  VA   - Mayer's total valence
  BVA  - Mayer's bonded valence
  FA   - Mayer's free valence

  ATOM       NA         ZA         QA         VA         BVA        FA
  0 S     15.8863    16.0000     0.1137     2.5253     2.5253     0.0000
  1 C      6.0969     6.0000    -0.0969     3.8236     3.8236     0.0000
  2 C      6.0940     6.0000    -0.0940     4.0413     4.0413     0.0000
  3 C      5.9665     6.0000     0.0335     3.8932     3.8932     0.0000
  4 C      6.1684     6.0000    -0.1684     3.9127     3.9127    -0.0000
  5 H      0.9794     1.0000     0.0206     1.0002     1.0002    -0.0000
  6 C      5.9397     6.0000     0.0603     3.9357     3.9357    -0.0000
  7 H      0.9983     1.0000     0.0017     0.9964     0.9964    -0.0000
  8 H      0.9657     1.0000     0.0343     0.9823     0.9823    -0.0000
  9 C      6.1158     6.0000    -0.1158     4.0862     4.0862    -0.0000
 10 H      0.9670     1.0000     0.0330     0.9838     0.9838    -0.0000
 11 H      0.9691     1.0000     0.0309     0.9715     0.9715    -0.0000
 12 C      6.0306     6.0000    -0.0306     3.9900     3.9900    -0.0000
 13 H      0.9657     1.0000     0.0343     0.9863     0.9863     0.0000
 14 H      0.9653     1.0000     0.0347     0.9882     0.9882     0.0000
 15 H      0.9704     1.0000     0.0296     0.9934     0.9934    -0.0000
 16 S     15.8680    16.0000     0.1320     2.4944     2.4944    -0.0000
 17 C      6.0896     6.0000    -0.0896     3.8382     3.8382    -0.0000
 18 C      6.0677     6.0000    -0.0677     3.9787     3.9787     0.0000
 19 C      6.0128     6.0000    -0.0128     4.0269     4.0269    -0.0000
 20 C      6.1808     6.0000    -0.1808     3.9260     3.9260    -0.0000
 21 H      0.9715     1.0000     0.0285     0.9960     0.9960    -0.0000
 22 C      5.9244     6.0000     0.0756     3.9288     3.9288     0.0000
 23 H      0.9660     1.0000     0.0340     0.9873     0.9873     0.0000
 24 H      0.9533     1.0000     0.0467     0.9840     0.9840     0.0000
 25 C      6.1497     6.0000    -0.1497     4.0985     4.0985    -0.0000
 26 H      0.9562     1.0000     0.0438     0.9805     0.9805     0.0000
 27 H      0.9738     1.0000     0.0262     0.9627     0.9627     0.0000
 28 C      6.0009     6.0000    -0.0009     3.9919     3.9919     0.0000
 29 H      0.9532     1.0000     0.0468     0.9876     0.9876    -0.0000
 30 H      0.9786     1.0000     0.0214     0.9904     0.9904     0.0000
 31 H      0.9833     1.0000     0.0167     0.9939     0.9939     0.0000
 32 H      0.9540     1.0000     0.0460     1.0087     1.0087     0.0000
 33 H      0.9373     1.0000     0.0627     0.9958     0.9958    -0.0000

  Mayer bond orders larger than 0.100000
B(  0-S ,  1-C ) :   1.1566 B(  0-S ,  4-C ) :   1.1766 B(  1-C ,  2-C ) :   1.5829 
B(  1-C , 32-H ) :   0.9659 B(  2-C ,  3-C ) :   1.2747 B(  2-C ,  6-C ) :   1.0287 
B(  3-C ,  4-C ) :   1.5416 B(  3-C ,  5-H ) :   0.9918 B(  4-C , 20-C ) :   1.0263 
B(  6-C ,  7-H ) :   0.9377 B(  6-C ,  8-H ) :   0.9399 B(  6-C ,  9-C ) :   1.0592 
B(  9-C , 10-H ) :   0.9612 B(  9-C , 11-H ) :   0.9593 B(  9-C , 12-C ) :   1.0716 
B( 12-C , 13-H ) :   0.9757 B( 12-C , 14-H ) :   0.9755 B( 12-C , 15-H ) :   0.9807 
B( 16-S , 17-C ) :   1.1588 B( 16-S , 20-C ) :   1.1510 B( 17-C , 18-C ) :   1.6079 
B( 17-C , 33-H ) :   0.9620 B( 18-C , 19-C ) :   1.2597 B( 18-C , 21-H ) :   0.9750 
B( 19-C , 20-C ) :   1.6127 B( 19-C , 22-C ) :   1.0194 B( 22-C , 23-H ) :   0.9270 
B( 22-C , 24-H ) :   0.9421 B( 22-C , 25-C ) :   1.0621 B( 25-C , 26-H ) :   0.9633 
B( 25-C , 27-H ) :   0.9504 B( 25-C , 28-C ) :   1.0718 B( 28-C , 29-H ) :   0.9797 
B( 28-C , 30-H ) :   0.9742 B( 28-C , 31-H ) :   0.9736 

-------
TIMINGS
-------

Total SCF time: 0 days 0 hours 0 min 26 sec 

Total time                  ....      26.940 sec
Sum of individual times     ....      26.009 sec  ( 96.5%)

Fock matrix formation       ....      24.198 sec  ( 89.8%)
  XC integration            ....       1.759 sec  (  7.3% of F)
    Basis function eval.    ....       0.210 sec  ( 11.9% of XC)
    Density eval.           ....       0.146 sec  (  8.3% of XC)
    XC-Functional eval.     ....       0.181 sec  ( 10.3% of XC)
    XC-Potential eval.      ....       0.180 sec  ( 10.2% of XC)
Diagonalization             ....       0.134 sec  (  0.5%)
Density matrix formation    ....       0.019 sec  (  0.1%)
Population analysis         ....       0.046 sec  (  0.2%)
Initial guess               ....       0.189 sec  (  0.7%)
Orbital Transformation      ....       0.000 sec  (  0.0%)
Orbital Orthonormalization  ....       0.000 sec  (  0.0%)
DIIS solution               ....       0.147 sec  (  0.5%)
SOSCF solution              ....       0.124 sec  (  0.5%)
Grid generation             ....       1.151 sec  (  4.3%)


-------------------------------------------------------------------------------
                          DFT DISPERSION CORRECTION                            
                                                                               
                              DFTD3 V3.1  Rev 1                                
                              USING zero damping                               
-------------------------------------------------------------------------------
The omegaB97X-D3 functional is recognized. Fit by Chai et al.
Active option DFTDOPT                   ...         3   

molecular C6(AA) [au] = 14132.408443 


            DFT-D V3
 parameters
 s6 scaling factor         :     1.0000 
 rs6 scaling factor        :     1.2810 
 s8 scaling factor         :     1.0000 
 rs8 scaling factor        :     1.0940 
 Damping factor alpha6     :    14.0000 
 Damping factor alpha8     :    16.0000 
 ad hoc parameters k1-k3   :    16.0000     1.3333    -4.0000 

 Edisp/kcal,au: -8.592658702234  -0.013693271800 
 E6   /kcal   :  -3.870887994 
 E8   /kcal   :  -4.721770708 
 % E8         :  54.951219080 

-------------------------   ----------------
Dispersion correction           -0.013693272
-------------------------   ----------------


-------------------------   --------------------
FINAL SINGLE POINT ENERGY     -1339.863437733860
-------------------------   --------------------


                            ***************************************
                            *     ORCA property calculations      *
                            ***************************************

                                    ---------------------
                                    Active property flags
                                    ---------------------
   (+) Dipole Moment


------------------------------------------------------------------------------
                       ORCA ELECTRIC PROPERTIES CALCULATION
------------------------------------------------------------------------------

Dipole Moment Calculation                       ... on
Quadrupole Moment Calculation                   ... off
Polarizability Calculation                      ... off
GBWName                                         ... config_7669.gbw
Electron density file                           ... config_7669.scfp
The origin for moment calculation is the CENTER OF MASS  = (-74.541557, 104.223481 198.189080)

-------------
DIPOLE MOMENT
-------------
                                X             Y             Z
Electronic contribution:     17.50899      13.67238     -19.66454
Nuclear contribution   :    -17.92431     -14.20889      19.93609
                        -----------------------------------------
Total Dipole Moment    :     -0.41532      -0.53651       0.27155
                        -----------------------------------------
Magnitude (a.u.)       :      0.73081
Magnitude (Debye)      :      1.85756



--------------------
Rotational spectrum 
--------------------
 
Rotational constants in cm-1:     0.017527     0.008518     0.006231 
Rotational constants in MHz :   525.456968   255.357021   186.793451 

 Dipole components along the rotational axes: 
x,y,z [a.u.] :    -0.046253     0.680804    -0.261619 
x,y,z [Debye]:    -0.117567     1.730467    -0.664983 

 

Timings for individual modules:

Sum of individual times         ...       28.039 sec (=   0.467 min)
GTO integral calculation        ...        0.744 sec (=   0.012 min)   2.7 %
SCF iterations                  ...       27.295 sec (=   0.455 min)  97.3 %
                             ****ORCA TERMINATED NORMALLY****
TOTAL RUN TIME: 0 days 0 hours 0 minutes 28 seconds 650 msec
