
                                 *****************
                                 * O   R   C   A *
                                 *****************

           --- An Ab Initio, DFT and Semiempirical electronic structure package ---

                  #######################################################
                  #                        -***-                        #
                  #          Department of theory and spectroscopy      #
                  #               Directorship: Frank Neese             #
                  #        Max Planck Institute fuer Kohlenforschung    #
                  #                Kaiser Wilhelm Platz 1               #
                  #                 D-45470 Muelheim/Ruhr               #
                  #                      Germany                        #
                  #                                                     #
                  #                  All rights reserved                #
                  #                        -***-                        #
                  #######################################################


                         Program Version 4.2.1 -  RELEASE  -


 With contributions from (in alphabetic order):
   Daniel Aravena         : Magnetic Suceptibility
   Michael Atanasov       : Ab Initio Ligand Field Theory (pilot matlab implementation)
   Alexander A. Auer      : GIAO ZORA, VPT2
   Ute Becker             : Parallelization
   Giovanni Bistoni       : ED, misc. LED, open-shell LED, HFLD
   Martin Brehm           : Molecular dynamics
   Dmytro Bykov           : SCF Hessian
   Vijay G. Chilkuri      : MRCI spin determinant printing, contributions to CSF-ICE
   Dipayan Datta          : RHF DLPNO-CCSD density
   Achintya Kumar Dutta   : EOM-CC, STEOM-CC
   Dmitry Ganyushin       : Spin-Orbit,Spin-Spin,Magnetic field MRCI
   Miquel Garcia          : C-PCM Hessian, Gaussian charge scheme
   Yang Guo               : DLPNO-NEVPT2, CIM, IAO-localization
   Andreas Hansen         : Spin unrestricted coupled pair/coupled cluster methods
   Benjamin Helmich-Paris : CASSCF linear response (MC-RPA)
   Lee Huntington         : MR-EOM, pCC
   Robert Izsak           : Overlap fitted RIJCOSX, COSX-SCS-MP3, EOM
   Christian Kollmar      : KDIIS, OOCD, Brueckner-CCSD(T), CCSD density
   Simone Kossmann        : Meta GGA functionals, TD-DFT gradient, OOMP2, MP2 Hessian
   Martin Krupicka        : AUTO-CI
   Lucas Lang             : DCDCAS
   Dagmar Lenk            : GEPOL surface, SMD
   Dimitrios Liakos       : Extrapolation schemes; Compound Job, initial MDCI parallelization
   Dimitrios Manganas     : Further ROCIS development; embedding schemes
   Dimitrios Pantazis     : SARC Basis sets
   Taras Petrenko         : DFT Hessian,TD-DFT gradient, ASA, ECA, R-Raman, ABS, FL, XAS/XES, NRVS
   Peter Pinski           : DLPNO-MP2, DLPNO-MP2 Gradient
   Christoph Reimann      : Effective Core Potentials
   Marius Retegan         : Local ZFS, SOC
   Christoph Riplinger    : Optimizer, TS searches, QM/MM, DLPNO-CCSD(T), (RO)-DLPNO pert. Triples
   Tobias Risthaus        : Range-separated hybrids, TD-DFT gradient, RPA, STAB
   Michael Roemelt        : Original ROCIS implementation
   Masaaki Saitow         : Open-shell DLPNO-CCSD energy and density
   Barbara Sandhoefer     : DKH picture change effects
   Avijit Sen             : IP-ROCIS
   Kantharuban Sivalingam : CASSCF convergence, NEVPT2, FIC-MRCI
   Bernardo de Souza      : ESD, SOC TD-DFT
   Georgi Stoychev        : AutoAux, RI-MP2 NMR
   Willem Van den Heuvel  : Paramagnetic NMR
   Boris Wezisla          : Elementary symmetry handling
   Frank Wennmohs         : Technical directorship


 We gratefully acknowledge several colleagues who have allowed us to
 interface, adapt or use parts of their codes:
   Stefan Grimme, W. Hujo, H. Kruse,             : VdW corrections, initial TS optimization,
                  C. Bannwarth                     DFT functionals, gCP, sTDA/sTD-DF
   Ed Valeev, F. Pavosevic, A. Kumar             : LibInt (2-el integral package), F12 methods
   Garnet Chan, S. Sharma, J. Yang, R. Olivares  : DMRG
   Ulf Ekstrom                                   : XCFun DFT Library
   Mihaly Kallay                                 : mrcc  (arbitrary order and MRCC methods)
   Andreas Klamt, Michael Diedenhofen            : otool_cosmo (COSMO solvation model)
   Jiri Pittner, Ondrej Demel                    : Mk-CCSD
   Frank Weinhold                                : gennbo (NPA and NBO analysis)
   Christopher J. Cramer and Donald G. Truhlar   : smd solvation model
   Lars Goerigk                                  : TD-DFT with DH, B97 family of functionals
   V. Asgeirsson, H. Jonsson                     : NEB implementation
   FAccTs GmbH                                   : IRC, NEB, NEB-TS, Multilevel, MM, QM/MM, CI optimization
   S Lehtola, MJT Oliveira, MAL Marques          : LibXC Library


 Your calculation uses the libint2 library for the computation of 2-el integrals
 For citations please refer to: http://libint.valeyev.net

 Your ORCA version has been built with support for libXC version: 4.2.3
 For citations please refer to: https://tddft.org/programs/libxc/

 This ORCA versions uses:
   CBLAS   interface :  Fast vector & matrix operations
   LAPACKE interface :  Fast linear algebra routines
   SCALAPACK package :  Parallel linear algebra routines


Your calculation utilizes the atom-pairwise dispersion correction
with the zero-damping scheme (D30)
Cite in your paper:
S.Grimme, J.Antony, S.Ehrlich and H.Krieg, J.Chem.Phys., 132, (2010), 154104 
   

XCFun DFT library Copyright 2009-2010 Ulf Ekstrom and contributors.
See http://admol.org/xcfun for more information. This is free soft-
ware; see the source code for copying conditions. There is ABSOLUTELY
NO WARRANTY; not even for MERCHANTABILITY or FITNESS FOR A PARTICULAR
PURPOSE. For details see the documentation. Scientific users of this 
library should cite U. Ekstrom, L. Visscher, R. Bast, A. J. Thorvald-
sen and K. Ruud; J.Chem.Theor.Comp. 2010, DOI: 10.1021/ct100117s
XCFun Version 0.99 
----- Orbital basis set information -----
Your calculation utilizes the basis: def2-SVP
   F. Weigend and R. Ahlrichs, Phys. Chem. Chem. Phys. 7, 3297 (2005).

================================================================================
                                        WARNINGS
                       Please study these warnings very carefully!
================================================================================


INFO   : the flag for use of LIBINT has been found!

================================================================================
                                       INPUT FILE
================================================================================
NAME = config_9036.inp
|  1> ! wB97X-D3 SP def2-SVP
|  2> %pal
|  3> nprocs 16
|  4> end
|  5> 
|  6> * xyz 0 1
|  7> S 	 -113.404 	 53.6933 	 113.834 	 
|  8> C 	 -111.759 	 53.4981 	 114.376 	 
|  9> C 	 -111.299 	 54.6667 	 114.855 	 
| 10> C 	 -112.164 	 55.7941 	 114.698 	 
| 11> C 	 -113.389 	 55.4153 	 114.106 	 
| 12> H 	 -112.112 	 56.7835 	 115.032 	 
| 13> C 	 -109.931 	 54.8206 	 115.532 	 
| 14> H 	 -109.842 	 53.928 	 116.227 	 
| 15> H 	 -110.061 	 55.6405 	 116.289 	 
| 16> C 	 -108.738 	 54.9739 	 114.619 	 
| 17> H 	 -107.828 	 54.9651 	 115.257 	 
| 18> H 	 -108.591 	 54.0391 	 114.038 	 
| 19> C 	 -108.581 	 56.2233 	 113.758 	 
| 20> H 	 -109.533 	 56.3304 	 113.084 	 
| 21> H 	 -108.447 	 57.089 	 114.413 	 
| 22> H 	 -107.636 	 56.0324 	 113.104 	 
| 23> S 	 -114.998 	 56.4008 	 111.992 	 
| 24> C 	 -116.226 	 57.5983 	 112.395 	 
| 25> C 	 -116.178 	 58.0149 	 113.696 	 
| 26> C 	 -115.111 	 57.345 	 114.364 	 
| 27> C 	 -114.491 	 56.3027 	 113.694 	 
| 28> H 	 -116.753 	 58.8443 	 114.12 	 
| 29> C 	 -114.756 	 57.5944 	 115.841 	 
| 30> H 	 -114.312 	 56.7399 	 116.251 	 
| 31> H 	 -115.671 	 57.5393 	 116.362 	 
| 32> C 	 -113.971 	 58.8621 	 116.199 	 
| 33> H 	 -113.569 	 59.1317 	 115.172 	 
| 34> H 	 -113.121 	 58.5821 	 116.925 	 
| 35> C 	 -114.829 	 60.0855 	 116.606 	 
| 36> H 	 -115.594 	 60.2368 	 115.789 	 
| 37> H 	 -114.105 	 60.9315 	 116.65 	 
| 38> H 	 -115.331 	 59.999 	 117.572 	 
| 39> H 	 -111.184 	 52.53 	 114.18 	 
| 40> H 	 -116.824 	 58.0845 	 111.641 	 
| 41> *
| 42> 
| 43>                          ****END OF INPUT****
================================================================================

                       ****************************
                       * Single Point Calculation *
                       ****************************

---------------------------------
CARTESIAN COORDINATES (ANGSTROEM)
---------------------------------
  S    -113.404000   53.693300  113.834000
  C    -111.759000   53.498100  114.376000
  C    -111.299000   54.666700  114.855000
  C    -112.164000   55.794100  114.698000
  C    -113.389000   55.415300  114.106000
  H    -112.112000   56.783500  115.032000
  C    -109.931000   54.820600  115.532000
  H    -109.842000   53.928000  116.227000
  H    -110.061000   55.640500  116.289000
  C    -108.738000   54.973900  114.619000
  H    -107.828000   54.965100  115.257000
  H    -108.591000   54.039100  114.038000
  C    -108.581000   56.223300  113.758000
  H    -109.533000   56.330400  113.084000
  H    -108.447000   57.089000  114.413000
  H    -107.636000   56.032400  113.104000
  S    -114.998000   56.400800  111.992000
  C    -116.226000   57.598300  112.395000
  C    -116.178000   58.014900  113.696000
  C    -115.111000   57.345000  114.364000
  C    -114.491000   56.302700  113.694000
  H    -116.753000   58.844300  114.120000
  C    -114.756000   57.594400  115.841000
  H    -114.312000   56.739900  116.251000
  H    -115.671000   57.539300  116.362000
  C    -113.971000   58.862100  116.199000
  H    -113.569000   59.131700  115.172000
  H    -113.121000   58.582100  116.925000
  C    -114.829000   60.085500  116.606000
  H    -115.594000   60.236800  115.789000
  H    -114.105000   60.931500  116.650000
  H    -115.331000   59.999000  117.572000
  H    -111.184000   52.530000  114.180000
  H    -116.824000   58.084500  111.641000

----------------------------
CARTESIAN COORDINATES (A.U.)
----------------------------
  NO LB      ZA    FRAG     MASS         X           Y           Z
   0 S    16.0000    0    32.060  -214.302502  101.465632  215.115085
   1 C     6.0000    0    12.011  -211.193903  101.096758  216.139316
   2 C     6.0000    0    12.011  -210.324629  103.305092  217.044495
   3 C     6.0000    0    12.011  -211.959242  105.435569  216.747808
   4 C     6.0000    0    12.011  -214.274157  104.719741  215.629090
   5 H     1.0000    0     1.008  -211.860976  107.305264  217.378977
   6 C     6.0000    0    12.011  -207.739484  103.595920  218.323840
   7 H     1.0000    0     1.008  -207.571298  101.909151  219.637199
   8 H     1.0000    0     1.008  -207.985148  105.145307  219.754362
   9 C     6.0000    0    12.011  -205.485040  103.885616  216.598520
  10 H     1.0000    0     1.008  -203.765390  103.868986  217.804165
  11 H     1.0000    0     1.008  -205.207251  102.119100  215.500589
  12 C     6.0000    0    12.011  -205.188353  106.246639  214.971466
  13 H     1.0000    0     1.008  -206.987373  106.449029  213.697790
  14 H     1.0000    0     1.008  -204.935130  107.882575  216.209236
  15 H     1.0000    0     1.008  -203.402562  105.885891  213.735585
  16 S    16.0000    0    32.060  -217.314726  106.582066  211.634209
  17 C     6.0000    0    12.011  -219.635310  108.845013  212.395769
  18 C     6.0000    0    12.011  -219.544603  109.632273  214.854303
  19 C     6.0000    0    12.011  -217.528265  108.366345  216.116640
  20 C     6.0000    0    12.011  -216.356635  106.396684  214.850523
  21 H     1.0000    0     1.008  -220.631195  111.199612  215.655546
  22 C     6.0000    0    12.011  -216.857412  108.837643  218.907765
  23 H     1.0000    0     1.008  -216.018374  107.222872  219.682553
  24 H     1.0000    0     1.008  -218.586512  108.733519  219.892312
  25 C     6.0000    0    12.011  -215.373977  111.233249  219.584287
  26 H     1.0000    0     1.008  -214.614307  111.742719  217.643538
  27 H     1.0000    0     1.008  -213.767710  110.704125  220.956228
  28 C     6.0000    0    12.011  -216.995362  113.545140  220.353406
  29 H     1.0000    0     1.008  -218.441003  113.831055  218.809499
  30 H     1.0000    0     1.008  -215.627201  115.143848  220.436554
  31 H     1.0000    0     1.008  -217.944005  113.381678  222.178881
  32 H     1.0000    0     1.008  -210.107310   99.267314  215.768930
  33 H     1.0000    0     1.008  -220.765366  109.763798  210.970915

--------------------------------
INTERNAL COORDINATES (ANGSTROEM)
--------------------------------
 S      0   0   0     0.000000000000     0.00000000     0.00000000
 C      1   0   0     1.742954973601     0.00000000     0.00000000
 C      2   1   0     1.344123119361   109.66048555     0.00000000
 C      3   2   1     1.429651971635   116.06604249   354.03548990
 C      4   3   2     1.412295450676   111.05874822     2.78255963
 H      4   3   2     1.045548831954   132.92668040   174.14876951
 C      3   2   1     1.534091982249   123.34392176   174.21574020
 H      7   3   2     1.134760221368   105.14782321   316.24213759
 H      7   3   2     1.123470075258   105.50843673   211.26854698
 C      7   3   2     1.510072478393   116.60668321    82.07351104
 H     10   7   3     1.111405164645   107.39664047   185.84601832
 H     10   7   3     1.110414805377   109.60114887   294.36994268
 C     10   7   3     1.525441037864   120.37880126    66.98041022
 H     13  10   7     1.171345555334   108.42207450   302.91174368
 H     13  10   7     1.093808708139   108.83537657    64.75797673
 H     13  10   7     1.164982321754   105.43430123   184.48633336
 S      5   4   3     2.833564407244   135.39588779   227.35618504
 C     17   5   4     1.761930546304   117.48377842   270.20343445
 C     18  17   5     1.366916442216   113.60083472     5.79257929
 C     19  18  17     1.426001055399   109.20525419     0.38262071
 C     20  19  18     1.385528523705   117.49705627   350.29916049
 H     19  18  17     1.094671347940   125.52973643   171.20691937
 C     20  19  18     1.539400649604   123.08604415   178.97758807
 H     23  20  19     1.046616572580   109.96321090   152.43214667
 H     23  20  19     1.054372804088   105.39726661    48.21461365
 C     23  20  19     1.533444583283   118.42355922   282.20662842
 H     26  23  20     1.135348915532    99.57771894   342.48143021
 H     26  23  20     1.152378410072   108.89331038   225.70585926
 C     26  23  20     1.548715777669   115.51797358    93.41772424
 H     29  26  23     1.129427151259   106.91596399   307.88707560
 H     29  26  23     1.114373366516   104.48610122   189.54844335
 H     29  26  23     1.092081613251   115.12226871    70.16981075
 H      2   1   3     1.142916711751   121.08840132   187.74191976
 H     18  17   5     1.078197774066   122.21412709   174.79699965

---------------------------
INTERNAL COORDINATES (A.U.)
---------------------------
 S      0   0   0     0.000000000000     0.00000000     0.00000000
 C      1   0   0     3.293707563862     0.00000000     0.00000000
 C      2   1   0     2.540024585864   109.66048555     0.00000000
 C      3   2   1     2.701650693211   116.06604249   354.03548990
 C      4   3   2     2.668851621960   111.05874822     2.78255963
 H      4   3   2     1.975800952034   132.92668040   174.14876951
 C      3   2   1     2.899013710695   123.34392176   174.21574020
 H      7   3   2     2.144386046054   105.14782321   316.24213759
 H      7   3   2     2.123050761893   105.50843673   211.26854698
 C      7   3   2     2.853623426534   116.60668321    82.07351104
 H     10   7   3     2.100251385005   107.39664047   185.84601832
 H     10   7   3     2.098379877214   109.60114887   294.36994268
 C     10   7   3     2.882665795008   120.37880126    66.98041022
 H     13  10   7     2.213522307767   108.42207450   302.91174368
 H     13  10   7     2.066998901280   108.83537657    64.75797673
 H     13  10   7     2.201497538975   105.43430123   184.48633336
 S      5   4   3     5.354660712518   135.39588779   227.35618504
 C     17   5   4     3.329566199505   117.48377842   270.20343445
 C     18  17   5     2.583097723742   113.60083472     5.79257929
 C     19  18  17     2.694751461387   109.20525419     0.38262071
 C     20  19  18     2.618269460539   117.49705627   350.29916049
 H     19  18  17     2.068629054256   125.52973643   171.20691937
 C     20  19  18     2.909045638131   123.08604415   178.97758807
 H     23  20  19     1.977818689400   109.96321090   152.43214667
 H     23  20  19     1.992475842781   105.39726661    48.21461365
 C     23  20  19     2.897790303950   118.42355922   282.20662842
 H     26  23  20     2.145498516800    99.57771894   342.48143021
 H     26  23  20     2.177679597680   108.89331038   225.70585926
 C     26  23  20     2.926648679077   115.51797358    93.41772424
 H     29  26  23     2.134308004094   106.91596399   307.88707560
 H     29  26  23     2.105860473651   104.48610122   189.54844335
 H     29  26  23     2.063735164935   115.12226871    70.16981075
 H      2   1   3     2.159799579091   121.08840132   187.74191976
 H     18  17   5     2.037498511187   122.21412709   174.79699965

---------------------
BASIS SET INFORMATION
---------------------
There are 3 groups of distinct atoms

 Group   1 Type S   : 10s7p1d contracted to 4s3p1d pattern {5311/511/1}
 Group   2 Type C   : 7s4p1d contracted to 3s2p1d pattern {511/31/1}
 Group   3 Type H   : 4s1p contracted to 2s1p pattern {31/1}

Atom   0S    basis set group =>   1
Atom   1C    basis set group =>   2
Atom   2C    basis set group =>   2
Atom   3C    basis set group =>   2
Atom   4C    basis set group =>   2
Atom   5H    basis set group =>   3
Atom   6C    basis set group =>   2
Atom   7H    basis set group =>   3
Atom   8H    basis set group =>   3
Atom   9C    basis set group =>   2
Atom  10H    basis set group =>   3
Atom  11H    basis set group =>   3
Atom  12C    basis set group =>   2
Atom  13H    basis set group =>   3
Atom  14H    basis set group =>   3
Atom  15H    basis set group =>   3
Atom  16S    basis set group =>   1
Atom  17C    basis set group =>   2
Atom  18C    basis set group =>   2
Atom  19C    basis set group =>   2
Atom  20C    basis set group =>   2
Atom  21H    basis set group =>   3
Atom  22C    basis set group =>   2
Atom  23H    basis set group =>   3
Atom  24H    basis set group =>   3
Atom  25C    basis set group =>   2
Atom  26H    basis set group =>   3
Atom  27H    basis set group =>   3
Atom  28C    basis set group =>   2
Atom  29H    basis set group =>   3
Atom  30H    basis set group =>   3
Atom  31H    basis set group =>   3
Atom  32H    basis set group =>   3
Atom  33H    basis set group =>   3


           ************************************************************
           *        Program running with 16 parallel MPI-processes    *
           *              working on a common directory               *
           ************************************************************
------------------------------------------------------------------------------
                           ORCA GTO INTEGRAL CALCULATION
------------------------------------------------------------------------------

                         BASIS SET STATISTICS AND STARTUP INFO

 # of primitive gaussian shells          ...  294
 # of primitive gaussian functions       ...  534
 # of contracted shells                  ...  154
 # of contracted basis functions         ...  322
 Highest angular momentum                ...    2
 Maximum contraction depth               ...    5
 Integral package used                   ... LIBINT
 Integral threshhold            Thresh   ...  1.000e-10
 Primitive cut-off              TCut     ...  1.000e-11


------------------------------ INTEGRAL EVALUATION ----------------------------


 * One electron integrals 
 Pre-screening matrix                    ... done
 Shell pair data                         ... done (   0.003 sec)



           ************************************************************
           *        Program running with 16 parallel MPI-processes    *
           *              working on a common directory               *
           ************************************************************
-------------------------------------------------------------------------------
                                 ORCA SCF
-------------------------------------------------------------------------------

------------
SCF SETTINGS
------------
Hamiltonian:
 Density Functional     Method          .... DFT(GTOs)
 Exchange Functional    Exchange        .... WB97X-D3
 Correlation Functional Correlation     .... WB97X-D3
 Gradients option       PostSCFGGA      .... off
 Hybrid DFT is turned on
   Fraction HF Exchange ScalHFX         ....  0.195728
   Scaling of DF-GGA-X  ScalDFX         ....  0.000000
   Scaling of DF-GGA-C  ScalDFC         ....  1.000000
   Scaling of DF-LDA-C  ScalLDAC        ....  1.000000
   Perturbative correction              ....  0.000000
   Density functional embedding theory  .... OFF
 Long-range corrected/Screened/Range-Separated Hybrid DFT is turned on
   Amount of maximum screened exact exchange              ....  0.804272
   Range separation parameter mu (erf(mu*r12)/r12)        ....  0.250000


General Settings:
 Integral files         IntName         .... config_9036
 Hartree-Fock type      HFTyp           .... RHF
 Total Charge           Charge          ....    0
 Multiplicity           Mult            ....    1
 Number of Electrons    NEL             ....  134
 Basis Dimension        Dim             ....  322
 Nuclear Repulsion      ENuc            ....   1281.6040996492 Eh

Convergence Acceleration:
 DIIS                   CNVDIIS         .... on
   Start iteration      DIISMaxIt       ....    12
   Startup error        DIISStart       ....  0.200000
   # of expansion vecs  DIISMaxEq       ....     5
   Bias factor          DIISBfac        ....   1.050
   Max. coefficient     DIISMaxC        ....  10.000
 Newton-Raphson         CNVNR           .... off
 SOSCF                  CNVSOSCF        .... on
   Start iteration      SOSCFMaxIt      ....   150
   Startup grad/error   SOSCFStart      ....  0.003300
 Level Shifting         CNVShift        .... on
   Level shift para.    LevelShift      ....    0.2500
   Turn off err/grad.   ShiftErr        ....    0.0010
 Zerner damping         CNVZerner       .... off
 Static damping         CNVDamp         .... on
   Fraction old density DampFac         ....    0.7000
   Max. Damping (<1)    DampMax         ....    0.9800
   Min. Damping (>=0)   DampMin         ....    0.0000
   Turn off err/grad.   DampErr         ....    0.1000
 Fernandez-Rico         CNVRico         .... off

SCF Procedure:
 Maximum # iterations   MaxIter         ....   125
 SCF integral mode      SCFMode         .... Direct
   Integral package                     .... LIBINT
 Reset frequency        DirectResetFreq ....    20
 Integral Threshold     Thresh          ....  1.000e-10 Eh
 Primitive CutOff       TCut            ....  1.000e-11 Eh

Convergence Tolerance:
 Convergence Check Mode ConvCheckMode   .... Total+1el-Energy
 Convergence forced     ConvForced      .... 0
 Energy Change          TolE            ....  1.000e-06 Eh
 1-El. energy change                    ....  1.000e-03 Eh
 Orbital Gradient       TolG            ....  5.000e-05
 Orbital Rotation angle TolX            ....  5.000e-05
 DIIS Error             TolErr          ....  1.000e-06


Diagonalization of the overlap matrix:
Smallest eigenvalue                        ... 7.093e-04
Time for diagonalization                   ...    0.016 sec
Threshold for overlap eigenvalues          ... 1.000e-08
Number of eigenvalues below threshold      ... 0
Time for construction of square roots      ...    0.036 sec
Total time needed                          ...    0.053 sec

-------------------
DFT GRID GENERATION
-------------------

General Integration Accuracy     IntAcc      ...  4.340
Radial Grid Type                 RadialGrid  ... Gauss-Chebyshev
Angular Grid (max. acc.)         AngularGrid ... Lebedev-110
Angular grid pruning method      GridPruning ... 3 (G Style)
Weight generation scheme         WeightScheme... Becke
Basis function cutoff            BFCut       ...    1.0000e-10
Integration weight cutoff        WCut        ...    1.0000e-14
Grids for H and He will be reduced by one unit

# of grid points (after initial pruning)     ...  41088 (   0.0 sec)
# of grid points (after weights+screening)   ...  36940 (   0.0 sec)
nearest neighbour list constructed           ...    0.0 sec
Grid point re-assignment to atoms done       ...    0.0 sec
Grid point division into batches done        ...    0.0 sec
Reduced shell lists constructed in    0.1 sec

Total number of grid points                  ...    36940
Total number of batches                      ...      593
Average number of points per batch           ...       62
Average number of grid points per atom       ...     1086
Average number of shells per batch           ...    73.64 (47.82%)
Average number of basis functions per batch  ...   145.90 (45.31%)
Average number of large shells per batch     ...    46.74 (63.47%)
Average number of large basis fcns per batch ...    96.74 (66.31%)
Maximum spatial batch extension              ...  15.12, 15.10, 20.32 au
Average spatial batch extension              ...   0.21,  0.22,  0.27 au

Time for grid setup =    0.214 sec

------------------------------
INITIAL GUESS: MODEL POTENTIAL
------------------------------
Loading Hartree-Fock densities                     ... done
Calculating cut-offs                               ... done
Setting up the integral package                    ... done
Initializing the effective Hamiltonian             ... done
Starting the Coulomb interaction                   ... done (   0.0 sec)
Reading the grid                                   ... done
Mapping shells                                     ... done
Starting the XC term evaluation                    ... done (   0.0 sec)
  promolecular density results
     # of electrons  =    133.975195530
     EX              =   -126.656062298
     EC              =     -4.611849465
     EX+EC           =   -131.267911763
Transforming the Hamiltonian                       ... done (   0.0 sec)
Diagonalizing the Hamiltonian                      ... done (   0.0 sec)
Back transforming the eigenvectors                 ... done (   0.0 sec)
Now organizing SCF variables                       ... done
                      ------------------
                      INITIAL GUESS DONE (   0.4 sec)
                      ------------------
--------------
SCF ITERATIONS
--------------
ITER       Energy         Delta-E        Max-DP      RMS-DP      [F,P]     Damp
               ***  Starting incremental Fock matrix formation  ***
  0  -1339.4224942421   0.000000000000 0.06300147  0.00155053  0.1504156 0.7000
  1  -1339.6067992040  -0.184304961866 0.04227154  0.00113151  0.0907855 0.7000
                               ***Turning on DIIS***
  2  -1339.6952309983  -0.088431794277 0.08662714  0.00211705  0.0469069 0.0000
  3  -1339.8279497457  -0.132718747453 0.04214867  0.00096003  0.0391111 0.0000
  4  -1339.8573332800  -0.029383534283 0.00831695  0.00020288  0.0072459 0.0000
                      *** Initiating the SOSCF procedure ***
                           *** Shutting down DIIS ***
                      *** Re-Reading the Fockian *** 
                      *** Removing any level shift *** 
ITER      Energy       Delta-E        Grad      Rot      Max-DP    RMS-DP
  5  -1339.85827683  -0.0009435463  0.001573  0.001573  0.002806  0.000098
               *** Restarting incremental Fock matrix formation ***
  6  -1339.85846346  -0.0001866385  0.001459  0.004086  0.002593  0.000065
  7  -1339.85852576  -0.0000622948  0.000774  0.005068  0.003225  0.000066
  8  -1339.85854296  -0.0000172022  0.000486  0.000933  0.000794  0.000023
  9  -1339.85854842  -0.0000054596  0.000152  0.000501  0.000393  0.000009
 10  -1339.85854896  -0.0000005367  0.000087  0.000293  0.000156  0.000004
                 **** Energy Check signals convergence ****
              ***Rediagonalizing the Fockian in SOSCF/NRSCF***

               *****************************************************
               *                     SUCCESS                       *
               *           SCF CONVERGED AFTER  11 CYCLES          *
               *****************************************************

Setting up the final grid:

General Integration Accuracy     IntAcc      ...  4.670
Radial Grid Type                 RadialGrid  ... Gauss-Chebyshev
Angular Grid (max. acc.)         AngularGrid ... Lebedev-302
Angular grid pruning method      GridPruning ... 3 (G Style)
Weight generation scheme         WeightScheme... Becke
Basis function cutoff            BFCut       ...    1.0000e-10
Integration weight cutoff        WCut        ...    1.0000e-14
Grids for H and He will be reduced by one unit

# of grid points (after initial pruning)     ... 161752 (   0.0 sec)
# of grid points (after weights+screening)   ... 142664 (   0.2 sec)
nearest neighbour list constructed           ...    0.0 sec
Grid point re-assignment to atoms done       ...    0.0 sec
Grid point division into batches done        ...    0.5 sec
Reduced shell lists constructed in    0.7 sec

Total number of grid points                  ...   142664
Total number of batches                      ...     2247
Average number of points per batch           ...       63
Average number of grid points per atom       ...     4196
Average number of shells per batch           ...    67.37 (43.74%)
Average number of basis functions per batch  ...   133.31 (41.40%)
Average number of large shells per batch     ...    41.80 (62.04%)
Average number of large basis fcns per batch ...    85.84 (64.39%)
Maximum spatial batch extension              ...  12.76, 12.99, 13.86 au
Average spatial batch extension              ...   0.14,  0.15,  0.15 au

Final grid set up in    1.2 sec
Final integration                            ... done (   0.3 sec)
Change in XC energy                          ...     0.006787751
Integrated number of electrons               ...   134.000040471
Previous integrated no of electrons          ...   133.993145396

----------------
TOTAL SCF ENERGY
----------------

Total Energy       :        -1339.85176144 Eh          -36459.21998 eV

Components:
Nuclear Repulsion  :         1281.60409965 Eh           34874.22052 eV
Electronic Energy  :        -2621.45586109 Eh          -71333.44050 eV
One Electron Energy:        -4379.94424471 Eh         -119184.34211 eV
Two Electron Energy:         1758.48838362 Eh           47850.90161 eV

Virial components:
Potential Energy   :        -2670.94229787 Eh          -72680.03491 eV
Kinetic Energy     :         1331.09053642 Eh           36220.81493 eV
Virial Ratio       :            2.00658199


DFT components:
N(Alpha)           :       67.000020235302 electrons
N(Beta)            :       67.000020235302 electrons
N(Total)           :      134.000040470603 electrons
E(XC)              :      -94.161015872748 Eh       
DFET-embed. en.    :        0.000000000000 Eh       

---------------
SCF CONVERGENCE
---------------

  Last Energy change         ...   -2.3588e-07  Tolerance :   1.0000e-06
  Last MAX-Density change    ...    3.4446e-05  Tolerance :   1.0000e-05
  Last RMS-Density change    ...    6.4618e-07  Tolerance :   1.0000e-06
  Last Orbital Gradient      ...    7.6682e-06  Tolerance :   5.0000e-05
  Last Orbital Rotation      ...    1.6389e-05  Tolerance :   5.0000e-05

             **** THE GBW FILE WAS UPDATED (config_9036.gbw) ****
             **** DENSITY FILE WAS UPDATED (config_9036.scfp) ****
             **** ENERGY FILE WAS UPDATED (config_9036.en.tmp) ****
             **** THE GBW FILE WAS UPDATED (config_9036.gbw) ****
             **** DENSITY FILE WAS UPDATED (config_9036.scfp) ****
----------------
ORBITAL ENERGIES
----------------

  NO   OCC          E(Eh)            E(eV) 
   0   2.0000     -88.965732     -2420.8806 
   1   2.0000     -88.964723     -2420.8532 
   2   2.0000     -10.333190      -281.1804 
   3   2.0000     -10.328985      -281.0660 
   4   2.0000     -10.321258      -280.8557 
   5   2.0000     -10.315822      -280.7078 
   6   2.0000     -10.303720      -280.3785 
   7   2.0000     -10.299137      -280.2538 
   8   2.0000     -10.298339      -280.2321 
   9   2.0000     -10.298198      -280.2282 
  10   2.0000     -10.297518      -280.2097 
  11   2.0000     -10.294002      -280.1140 
  12   2.0000     -10.292510      -280.0734 
  13   2.0000     -10.289570      -279.9934 
  14   2.0000     -10.288561      -279.9660 
  15   2.0000     -10.275963      -279.6232 
  16   2.0000      -8.080013      -219.8683 
  17   2.0000      -8.079796      -219.8624 
  18   2.0000      -6.038511      -164.3162 
  19   2.0000      -6.038214      -164.3082 
  20   2.0000      -6.034705      -164.2127 
  21   2.0000      -6.034176      -164.1983 
  22   2.0000      -6.030705      -164.1038 
  23   2.0000      -6.030661      -164.1026 
  24   2.0000      -1.006216       -27.3805 
  25   2.0000      -0.986751       -26.8509 
  26   2.0000      -0.908426       -24.7195 
  27   2.0000      -0.905518       -24.6404 
  28   2.0000      -0.870355       -23.6836 
  29   2.0000      -0.847671       -23.0663 
  30   2.0000      -0.843071       -22.9411 
  31   2.0000      -0.816871       -22.2282 
  32   2.0000      -0.782684       -21.2979 
  33   2.0000      -0.771064       -20.9817 
  34   2.0000      -0.701787       -19.0966 
  35   2.0000      -0.691727       -18.8229 
  36   2.0000      -0.688891       -18.7457 
  37   2.0000      -0.663844       -18.0641 
  38   2.0000      -0.642891       -17.4939 
  39   2.0000      -0.609381       -16.5821 
  40   2.0000      -0.597696       -16.2641 
  41   2.0000      -0.572997       -15.5920 
  42   2.0000      -0.552410       -15.0318 
  43   2.0000      -0.546682       -14.8760 
  44   2.0000      -0.539670       -14.6852 
  45   2.0000      -0.530196       -14.4274 
  46   2.0000      -0.520426       -14.1615 
  47   2.0000      -0.512574       -13.9478 
  48   2.0000      -0.504772       -13.7355 
  49   2.0000      -0.501339       -13.6421 
  50   2.0000      -0.483847       -13.1662 
  51   2.0000      -0.482142       -13.1198 
  52   2.0000      -0.473948       -12.8968 
  53   2.0000      -0.468336       -12.7441 
  54   2.0000      -0.458141       -12.4667 
  55   2.0000      -0.448059       -12.1923 
  56   2.0000      -0.440960       -11.9991 
  57   2.0000      -0.433430       -11.7942 
  58   2.0000      -0.425337       -11.5740 
  59   2.0000      -0.418780       -11.3956 
  60   2.0000      -0.416919       -11.3449 
  61   2.0000      -0.408446       -11.1144 
  62   2.0000      -0.402798       -10.9607 
  63   2.0000      -0.346034        -9.4161 
  64   2.0000      -0.333169        -9.0660 
  65   2.0000      -0.330084        -8.9820 
  66   2.0000      -0.297692        -8.1006 
  67   0.0000       0.027091         0.7372 
  68   0.0000       0.067813         1.8453 
  69   0.0000       0.111884         3.0445 
  70   0.0000       0.115525         3.1436 
  71   0.0000       0.130573         3.5531 
  72   0.0000       0.139548         3.7973 
  73   0.0000       0.145732         3.9656 
  74   0.0000       0.152873         4.1599 
  75   0.0000       0.157809         4.2942 
  76   0.0000       0.166484         4.5303 
  77   0.0000       0.179568         4.8863 
  78   0.0000       0.184296         5.0150 
  79   0.0000       0.190655         5.1880 
  80   0.0000       0.196471         5.3462 
  81   0.0000       0.203153         5.5281 
  82   0.0000       0.206797         5.6272 
  83   0.0000       0.210929         5.7397 
  84   0.0000       0.217538         5.9195 
  85   0.0000       0.221336         6.0228 
  86   0.0000       0.224116         6.0985 
  87   0.0000       0.230620         6.2755 
  88   0.0000       0.235522         6.4089 
  89   0.0000       0.238912         6.5011 
  90   0.0000       0.244989         6.6665 
  91   0.0000       0.270114         7.3502 
  92   0.0000       0.279101         7.5947 
  93   0.0000       0.285618         7.7721 
  94   0.0000       0.303582         8.2609 
  95   0.0000       0.323547         8.8042 
  96   0.0000       0.340827         9.2744 
  97   0.0000       0.350734         9.5440 
  98   0.0000       0.360000         9.7961 
  99   0.0000       0.363892         9.9020 
 100   0.0000       0.380468        10.3530 
 101   0.0000       0.397528        10.8173 
 102   0.0000       0.415479        11.3058 
 103   0.0000       0.430505        11.7146 
 104   0.0000       0.437447        11.9035 
 105   0.0000       0.440765        11.9938 
 106   0.0000       0.462174        12.5764 
 107   0.0000       0.483279        13.1507 
 108   0.0000       0.487681        13.2705 
 109   0.0000       0.492437        13.3999 
 110   0.0000       0.504026        13.7152 
 111   0.0000       0.510284        13.8855 
 112   0.0000       0.519804        14.1446 
 113   0.0000       0.524912        14.2836 
 114   0.0000       0.532881        14.5004 
 115   0.0000       0.537188        14.6176 
 116   0.0000       0.549977        14.9656 
 117   0.0000       0.552730        15.0405 
 118   0.0000       0.565456        15.3869 
 119   0.0000       0.574401        15.6303 
 120   0.0000       0.585829        15.9412 
 121   0.0000       0.590408        16.0658 
 122   0.0000       0.593725        16.1561 
 123   0.0000       0.604505        16.4494 
 124   0.0000       0.617637        16.8067 
 125   0.0000       0.619220        16.8498 
 126   0.0000       0.629701        17.1350 
 127   0.0000       0.638386        17.3714 
 128   0.0000       0.648018        17.6335 
 129   0.0000       0.651843        17.7375 
 130   0.0000       0.664670        18.0866 
 131   0.0000       0.679012        18.4769 
 132   0.0000       0.686938        18.6925 
 133   0.0000       0.692896        18.8546 
 134   0.0000       0.697155        18.9706 
 135   0.0000       0.715608        19.4727 
 136   0.0000       0.719138        19.5687 
 137   0.0000       0.724758        19.7217 
 138   0.0000       0.728998        19.8370 
 139   0.0000       0.731200        19.8970 
 140   0.0000       0.736310        20.0360 
 141   0.0000       0.741682        20.1822 
 142   0.0000       0.744106        20.2481 
 143   0.0000       0.750555        20.4236 
 144   0.0000       0.758879        20.6501 
 145   0.0000       0.762846        20.7581 
 146   0.0000       0.763011        20.7626 
 147   0.0000       0.767677        20.8895 
 148   0.0000       0.773451        21.0467 
 149   0.0000       0.776243        21.1226 
 150   0.0000       0.783237        21.3129 
 151   0.0000       0.785053        21.3624 
 152   0.0000       0.786272        21.3956 
 153   0.0000       0.791479        21.5372 
 154   0.0000       0.795241        21.6396 
 155   0.0000       0.800464        21.7817 
 156   0.0000       0.805660        21.9231 
 157   0.0000       0.808909        22.0115 
 158   0.0000       0.815746        22.1976 
 159   0.0000       0.820637        22.3307 
 160   0.0000       0.821763        22.3613 
 161   0.0000       0.835193        22.7268 
 162   0.0000       0.843630        22.9563 
 163   0.0000       0.848800        23.0970 
 164   0.0000       0.855914        23.2906 
 165   0.0000       0.864134        23.5143 
 166   0.0000       0.865164        23.5423 
 167   0.0000       0.876725        23.8569 
 168   0.0000       0.892038        24.2736 
 169   0.0000       0.903313        24.5804 
 170   0.0000       0.917247        24.9596 
 171   0.0000       0.919100        25.0100 
 172   0.0000       0.922098        25.0916 
 173   0.0000       0.932345        25.3704 
 174   0.0000       0.950746        25.8711 
 175   0.0000       0.954639        25.9770 
 176   0.0000       0.971511        26.4362 
 177   0.0000       0.987072        26.8596 
 178   0.0000       1.001053        27.2400 
 179   0.0000       1.010043        27.4847 
 180   0.0000       1.024575        27.8801 
 181   0.0000       1.066893        29.0316 
 182   0.0000       1.080055        29.3898 
 183   0.0000       1.105295        30.0766 
 184   0.0000       1.111721        30.2515 
 185   0.0000       1.127124        30.6706 
 186   0.0000       1.137062        30.9410 
 187   0.0000       1.147365        31.2214 
 188   0.0000       1.174030        31.9470 
 189   0.0000       1.198955        32.6252 
 190   0.0000       1.206919        32.8419 
 191   0.0000       1.221061        33.2267 
 192   0.0000       1.240666        33.7602 
 193   0.0000       1.252975        34.0952 
 194   0.0000       1.272939        34.6384 
 195   0.0000       1.297898        35.3176 
 196   0.0000       1.304327        35.4925 
 197   0.0000       1.316333        35.8193 
 198   0.0000       1.343551        36.5599 
 199   0.0000       1.362629        37.0790 
 200   0.0000       1.388795        37.7910 
 201   0.0000       1.400391        38.1066 
 202   0.0000       1.437198        39.1081 
 203   0.0000       1.451781        39.5050 
 204   0.0000       1.463482        39.8234 
 205   0.0000       1.474083        40.1118 
 206   0.0000       1.490553        40.5600 
 207   0.0000       1.518053        41.3083 
 208   0.0000       1.547040        42.0971 
 209   0.0000       1.566513        42.6270 
 210   0.0000       1.596934        43.4548 
 211   0.0000       1.599358        43.5208 
 212   0.0000       1.614690        43.9379 
 213   0.0000       1.626694        44.2646 
 214   0.0000       1.633474        44.4491 
 215   0.0000       1.646176        44.7947 
 216   0.0000       1.695601        46.1397 
 217   0.0000       1.705462        46.4080 
 218   0.0000       1.753549        47.7165 
 219   0.0000       1.754983        47.7555 
 220   0.0000       1.777668        48.3728 
 221   0.0000       1.785329        48.5813 
 222   0.0000       1.788766        48.6748 
 223   0.0000       1.793800        48.8118 
 224   0.0000       1.799551        48.9683 
 225   0.0000       1.825644        49.6783 
 226   0.0000       1.831537        49.8387 
 227   0.0000       1.838886        50.0386 
 228   0.0000       1.843660        50.1685 
 229   0.0000       1.847669        50.2776 
 230   0.0000       1.852547        50.4104 
 231   0.0000       1.865596        50.7654 
 232   0.0000       1.870450        50.8975 
 233   0.0000       1.882609        51.2284 
 234   0.0000       1.883622        51.2559 
 235   0.0000       1.886222        51.3267 
 236   0.0000       1.892859        51.5073 
 237   0.0000       1.894784        51.5597 
 238   0.0000       1.902870        51.7797 
 239   0.0000       1.937340        52.7177 
 240   0.0000       1.946390        52.9640 
 241   0.0000       1.947868        53.0042 
 242   0.0000       1.958175        53.2846 
 243   0.0000       1.972712        53.6802 
 244   0.0000       1.976232        53.7760 
 245   0.0000       1.985662        54.0326 
 246   0.0000       1.993925        54.2575 
 247   0.0000       2.000699        54.4418 
 248   0.0000       2.007392        54.6239 
 249   0.0000       2.012593        54.7654 
 250   0.0000       2.017795        54.9070 
 251   0.0000       2.039481        55.4971 
 252   0.0000       2.040356        55.5209 
 253   0.0000       2.051213        55.8163 
 254   0.0000       2.054455        55.9046 
 255   0.0000       2.085984        56.7625 
 256   0.0000       2.102173        57.2030 
 257   0.0000       2.116056        57.5808 
 258   0.0000       2.130378        57.9705 
 259   0.0000       2.148739        58.4702 
 260   0.0000       2.163712        58.8776 
 261   0.0000       2.183087        59.4048 
 262   0.0000       2.188504        59.5522 
 263   0.0000       2.213735        60.2388 
 264   0.0000       2.229185        60.6592 
 265   0.0000       2.241222        60.9867 
 266   0.0000       2.250736        61.2456 
 267   0.0000       2.265485        61.6470 
 268   0.0000       2.286230        62.2115 
 269   0.0000       2.302622        62.6575 
 270   0.0000       2.316900        63.0461 
 271   0.0000       2.331288        63.4376 
 272   0.0000       2.340713        63.6940 
 273   0.0000       2.351700        63.9930 
 274   0.0000       2.363772        64.3215 
 275   0.0000       2.379775        64.7570 
 276   0.0000       2.416634        65.7599 
 277   0.0000       2.430066        66.1255 
 278   0.0000       2.440851        66.4189 
 279   0.0000       2.463739        67.0418 
 280   0.0000       2.474232        67.3273 
 281   0.0000       2.479598        67.4733 
 282   0.0000       2.510668        68.3188 
 283   0.0000       2.517648        68.5087 
 284   0.0000       2.534122        68.9570 
 285   0.0000       2.538304        69.0708 
 286   0.0000       2.556145        69.5562 
 287   0.0000       2.562208        69.7212 
 288   0.0000       2.586418        70.3800 
 289   0.0000       2.600914        70.7745 
 290   0.0000       2.608718        70.9868 
 291   0.0000       2.614256        71.1375 
 292   0.0000       2.646360        72.0111 
 293   0.0000       2.656568        72.2889 
 294   0.0000       2.675434        72.8022 
 295   0.0000       2.686136        73.0935 
 296   0.0000       2.720736        74.0350 
 297   0.0000       2.740007        74.5594 
 298   0.0000       2.794762        76.0493 
 299   0.0000       2.817545        76.6693 
 300   0.0000       2.852113        77.6099 
 301   0.0000       2.876336        78.2691 
 302   0.0000       2.885723        78.5245 
 303   0.0000       2.891492        78.6815 
 304   0.0000       2.910941        79.2107 
 305   0.0000       2.944340        80.1196 
 306   0.0000       2.959686        80.5372 
 307   0.0000       2.962399        80.6110 
 308   0.0000       2.979757        81.0833 
 309   0.0000       3.019889        82.1754 
 310   0.0000       3.034503        82.5730 
 311   0.0000       3.052057        83.0507 
 312   0.0000       3.063208        83.3541 
 313   0.0000       3.095736        84.2393 
 314   0.0000       3.115801        84.7852 
 315   0.0000       3.131058        85.2004 
 316   0.0000       3.149363        85.6985 
 317   0.0000       3.173357        86.3514 
 318   0.0000       3.255069        88.5749 
 319   0.0000       3.262909        88.7883 
 320   0.0000       3.402796        92.5948 
 321   0.0000       3.442149        93.6656 

                    ********************************
                    * MULLIKEN POPULATION ANALYSIS *
                    ********************************

-----------------------
MULLIKEN ATOMIC CHARGES
-----------------------
   0 S :    0.110459
   1 C :   -0.159936
   2 C :   -0.071479
   3 C :    0.071354
   4 C :   -0.189167
   5 H :   -0.018253
   6 C :    0.036713
   7 H :    0.036739
   8 H :    0.024093
   9 C :   -0.067349
  10 H :    0.024773
  11 H :    0.025718
  12 C :   -0.090816
  13 H :    0.061457
  14 H :    0.040273
  15 H :    0.054731
  16 S :    0.102302
  17 C :   -0.084494
  18 C :   -0.011894
  19 C :   -0.078818
  20 C :   -0.126609
  21 H :    0.031636
  22 C :    0.086059
  23 H :    0.007987
  24 H :    0.005667
  25 C :   -0.136525
  26 H :    0.047907
  27 H :    0.053659
  28 C :   -0.049463
  29 H :    0.035438
  30 H :    0.043995
  31 H :    0.041715
  32 H :    0.084233
  33 H :    0.057896
Sum of atomic charges:    0.0000000

--------------------------------
MULLIKEN REDUCED ORBITAL CHARGES
--------------------------------
  0 S s       :     5.845725  s :     5.845725
      pz      :     3.626174  p :     9.934645
      px      :     3.212267
      py      :     3.096204
      dz2     :     0.012347  d :     0.109171
      dxz     :     0.018466
      dyz     :     0.018537
      dx2y2   :     0.045293
      dxy     :     0.014528
  1 C s       :     3.204570  s :     3.204570
      pz      :     1.079370  p :     2.920124
      px      :     0.853118
      py      :     0.987636
      dz2     :     0.004814  d :     0.035242
      dxz     :     0.005838
      dyz     :     0.005331
      dx2y2   :     0.011487
      dxy     :     0.007772
  2 C s       :     3.061253  s :     3.061253
      pz      :     0.993772  p :     2.964661
      px      :     1.014058
      py      :     0.956830
      dz2     :     0.005361  d :     0.045565
      dxz     :     0.006387
      dyz     :     0.009800
      dx2y2   :     0.010927
      dxy     :     0.013090
  3 C s       :     3.191865  s :     3.191865
      pz      :     0.987211  p :     2.703514
      px      :     0.914399
      py      :     0.801903
      dz2     :     0.003918  d :     0.033267
      dxz     :     0.005853
      dyz     :     0.004840
      dx2y2   :     0.010696
      dxy     :     0.007961
  4 C s       :     3.091915  s :     3.091915
      pz      :     1.089127  p :     3.053608
      px      :     1.022122
      py      :     0.942359
      dz2     :     0.005432  d :     0.043644
      dxz     :     0.005799
      dyz     :     0.007087
      dx2y2   :     0.015695
      dxy     :     0.009630
  5 H s       :     0.991874  s :     0.991874
      pz      :     0.006747  p :     0.026380
      px      :     0.004445
      py      :     0.015188
  6 C s       :     3.004784  s :     3.004784
      pz      :     0.990524  p :     2.923497
      px      :     0.926090
      py      :     1.006883
      dz2     :     0.003844  d :     0.035006
      dxz     :     0.008787
      dyz     :     0.009490
      dx2y2   :     0.009180
      dxy     :     0.003705
  7 H s       :     0.941755  s :     0.941755
      pz      :     0.007697  p :     0.021506
      px      :     0.003413
      py      :     0.010395
  8 H s       :     0.953894  s :     0.953894
      pz      :     0.008605  p :     0.022014
      px      :     0.003534
      py      :     0.009875
  9 C s       :     3.032500  s :     3.032500
      pz      :     1.007127  p :     2.997282
      px      :     0.978514
      py      :     1.011640
      dz2     :     0.003510  d :     0.037568
      dxz     :     0.010799
      dyz     :     0.009326
      dx2y2   :     0.010040
      dxy     :     0.003892
 10 H s       :     0.952948  s :     0.952948
      pz      :     0.007442  p :     0.022279
      px      :     0.010175
      py      :     0.004662
 11 H s       :     0.952580  s :     0.952580
      pz      :     0.006830  p :     0.021702
      px      :     0.004530
      py      :     0.010341
 12 C s       :     3.085741  s :     3.085741
      pz      :     0.992139  p :     2.978397
      px      :     1.011638
      py      :     0.974621
      dz2     :     0.001681  d :     0.026677
      dxz     :     0.006909
      dyz     :     0.008546
      dx2y2   :     0.007298
      dxy     :     0.002242
 13 H s       :     0.918512  s :     0.918512
      pz      :     0.006658  p :     0.020030
      px      :     0.009923
      py      :     0.003449
 14 H s       :     0.936954  s :     0.936954
      pz      :     0.007701  p :     0.022773
      px      :     0.004557
      py      :     0.010514
 15 H s       :     0.925345  s :     0.925345
      pz      :     0.006641  p :     0.019924
      px      :     0.009451
      py      :     0.003833
 16 S s       :     5.849735  s :     5.849735
      pz      :     3.219980  p :     9.945769
      px      :     3.302462
      py      :     3.423327
      dz2     :     0.031760  d :     0.102194
      dxz     :     0.017843
      dyz     :     0.015041
      dx2y2   :     0.017142
      dxy     :     0.020407
 17 C s       :     3.151047  s :     3.151047
      pz      :     0.970340  p :     2.897729
      px      :     0.949376
      py      :     0.978013
      dz2     :     0.008409  d :     0.035718
      dxz     :     0.009058
      dyz     :     0.008104
      dx2y2   :     0.004456
      dxy     :     0.005691
 18 C s       :     3.172785  s :     3.172785
      pz      :     0.912227  p :     2.804500
      px      :     0.951174
      py      :     0.941098
      dz2     :     0.008924  d :     0.034610
      dxz     :     0.008002
      dyz     :     0.008212
      dx2y2   :     0.004476
      dxy     :     0.004996
 19 C s       :     3.086063  s :     3.086063
      pz      :     1.019914  p :     2.948868
      px      :     0.961204
      py      :     0.967750
      dz2     :     0.009831  d :     0.043887
      dxz     :     0.010409
      dyz     :     0.008921
      dx2y2   :     0.008941
      dxy     :     0.005786
 20 C s       :     3.067521  s :     3.067521
      pz      :     0.893510  p :     3.016740
      px      :     1.076298
      py      :     1.046931
      dz2     :     0.012430  d :     0.042348
      dxz     :     0.008569
      dyz     :     0.007812
      dx2y2   :     0.006600
      dxy     :     0.006937
 21 H s       :     0.945078  s :     0.945078
      pz      :     0.005234  p :     0.023286
      px      :     0.007063
      py      :     0.010990
 22 C s       :     2.921298  s :     2.921298
      pz      :     0.942872  p :     2.956491
      px      :     1.021563
      py      :     0.992057
      dz2     :     0.007330  d :     0.036151
      dxz     :     0.008516
      dyz     :     0.007132
      dx2y2   :     0.006819
      dxy     :     0.006354
 23 H s       :     0.966017  s :     0.966017
      pz      :     0.006081  p :     0.025997
      px      :     0.008057
      py      :     0.011858
 24 H s       :     0.968848  s :     0.968848
      pz      :     0.007346  p :     0.025485
      px      :     0.012665
      py      :     0.005475
 25 C s       :     3.120279  s :     3.120279
      pz      :     1.006896  p :     2.981354
      px      :     1.014054
      py      :     0.960403
      dz2     :     0.006110  d :     0.034893
      dxz     :     0.007032
      dyz     :     0.005272
      dx2y2   :     0.007216
      dxy     :     0.009263
 26 H s       :     0.930280  s :     0.930280
      pz      :     0.012134  p :     0.021813
      px      :     0.004894
      py      :     0.004785
 27 H s       :     0.926975  s :     0.926975
      pz      :     0.007254  p :     0.019366
      px      :     0.008646
      py      :     0.003466
 28 C s       :     3.038277  s :     3.038277
      pz      :     1.010547  p :     2.984164
      px      :     0.987390
      py      :     0.986227
      dz2     :     0.005704  d :     0.027022
      dxz     :     0.008247
      dyz     :     0.002081
      dx2y2   :     0.003257
      dxy     :     0.007732
 29 H s       :     0.942641  s :     0.942641
      pz      :     0.009376  p :     0.021921
      px      :     0.008400
      py      :     0.004146
 30 H s       :     0.933327  s :     0.933327
      pz      :     0.004362  p :     0.022678
      px      :     0.008533
      py      :     0.009784
 31 H s       :     0.935332  s :     0.935332
      pz      :     0.012090  p :     0.022953
      px      :     0.006593
      py      :     0.004269
 32 H s       :     0.894473  s :     0.894473
      pz      :     0.004521  p :     0.021294
      px      :     0.005472
      py      :     0.011302
 33 H s       :     0.918237  s :     0.918237
      pz      :     0.009418  p :     0.023867
      px      :     0.007797
      py      :     0.006652


                     *******************************
                     * LOEWDIN POPULATION ANALYSIS *
                     *******************************

----------------------
LOEWDIN ATOMIC CHARGES
----------------------
   0 S :    0.413105
   1 C :   -0.210343
   2 C :   -0.073697
   3 C :   -0.055824
   4 C :   -0.192717
   5 H :    0.023347
   6 C :   -0.040890
   7 H :    0.039131
   8 H :    0.031044
   9 C :   -0.057037
  10 H :    0.026670
  11 H :    0.025030
  12 C :   -0.076717
  13 H :    0.037486
  14 H :    0.023873
  15 H :    0.041129
  16 S :    0.390072
  17 C :   -0.166638
  18 C :   -0.076705
  19 C :   -0.051044
  20 C :   -0.198170
  21 H :    0.037808
  22 C :   -0.040536
  23 H :    0.024145
  24 H :    0.023838
  25 C :   -0.055219
  26 H :    0.032440
  27 H :    0.033153
  28 C :   -0.068097
  29 H :    0.029421
  30 H :    0.031884
  31 H :    0.023021
  32 H :    0.049065
  33 H :    0.027970

-------------------------------
LOEWDIN REDUCED ORBITAL CHARGES
-------------------------------
  0 S s       :     5.498993  s :     5.498993
      pz      :     3.593615  p :     9.952350
      px      :     3.228321
      py      :     3.130414
      dz2     :     0.014886  d :     0.135552
      dxz     :     0.021802
      dyz     :     0.022110
      dx2y2   :     0.059476
      dxy     :     0.017278
  1 C s       :     2.934860  s :     2.934860
      pz      :     1.101546  p :     3.191369
      px      :     1.001478
      py      :     1.088345
      dz2     :     0.009598  d :     0.084114
      dxz     :     0.013261
      dyz     :     0.011172
      dx2y2   :     0.029617
      dxy     :     0.020466
  2 C s       :     2.857148  s :     2.857148
      pz      :     0.993838  p :     3.103015
      px      :     1.034692
      py      :     1.074486
      dz2     :     0.011258  d :     0.113534
      dxz     :     0.013989
      dyz     :     0.022600
      dx2y2   :     0.029926
      dxy     :     0.035761
  3 C s       :     2.864228  s :     2.864228
      pz      :     1.023987  p :     3.103278
      px      :     1.032176
      py      :     1.047115
      dz2     :     0.008704  d :     0.088318
      dxz     :     0.014678
      dyz     :     0.011325
      dx2y2   :     0.029706
      dxy     :     0.023904
  4 C s       :     2.917051  s :     2.917051
      pz      :     1.084002  p :     3.173437
      px      :     1.077446
      py      :     1.011988
      dz2     :     0.010955  d :     0.102229
      dxz     :     0.013893
      dyz     :     0.015571
      dx2y2   :     0.037353
      dxy     :     0.024457
  5 H s       :     0.897863  s :     0.897863
      pz      :     0.020443  p :     0.078790
      px      :     0.014869
      py      :     0.043478
  6 C s       :     2.843665  s :     2.843665
      pz      :     1.032297  p :     3.109777
      px      :     1.013742
      py      :     1.063738
      dz2     :     0.007687  d :     0.087448
      dxz     :     0.023679
      dyz     :     0.024559
      dx2y2   :     0.023850
      dxy     :     0.007673
  7 H s       :     0.900127  s :     0.900127
      pz      :     0.021536  p :     0.060741
      px      :     0.011125
      py      :     0.028080
  8 H s       :     0.906513  s :     0.906513
      pz      :     0.024361  p :     0.062443
      px      :     0.011605
      py      :     0.026477
  9 C s       :     2.837932  s :     2.837932
      pz      :     1.051680  p :     3.127244
      px      :     1.030849
      py      :     1.044715
      dz2     :     0.006716  d :     0.091860
      dxz     :     0.027318
      dyz     :     0.024280
      dx2y2   :     0.025860
      dxy     :     0.007686
 10 H s       :     0.909248  s :     0.909248
      pz      :     0.021130  p :     0.064082
      px      :     0.029833
      py      :     0.013119
 11 H s       :     0.911394  s :     0.911394
      pz      :     0.019695  p :     0.063576
      px      :     0.013173
      py      :     0.030708
 12 C s       :     2.870681  s :     2.870681
      pz      :     1.047477  p :     3.139431
      px      :     1.048331
      py      :     1.043623
      dz2     :     0.002979  d :     0.066605
      dxz     :     0.018130
      dyz     :     0.022047
      dx2y2   :     0.018709
      dxy     :     0.004740
 13 H s       :     0.907560  s :     0.907560
      pz      :     0.017997  p :     0.054954
      px      :     0.027673
      py      :     0.009284
 14 H s       :     0.909800  s :     0.909800
      pz      :     0.023044  p :     0.066327
      px      :     0.012350
      py      :     0.030934
 15 H s       :     0.904174  s :     0.904174
      pz      :     0.017816  p :     0.054696
      px      :     0.026716
      py      :     0.010165
 16 S s       :     5.525495  s :     5.525495
      pz      :     3.253504  p :     9.959335
      px      :     3.291711
      py      :     3.414120
      dz2     :     0.039985  d :     0.125098
      dxz     :     0.021628
      dyz     :     0.016992
      dx2y2   :     0.020212
      dxy     :     0.026280
 17 C s       :     2.930286  s :     2.930286
      pz      :     1.086998  p :     3.152667
      px      :     1.024560
      py      :     1.041109
      dz2     :     0.022596  d :     0.083685
      dxz     :     0.021042
      dyz     :     0.019854
      dx2y2   :     0.008709
      dxy     :     0.011484
 18 C s       :     2.866229  s :     2.866229
      pz      :     1.065019  p :     3.119377
      px      :     1.026926
      py      :     1.027432
      dz2     :     0.026039  d :     0.091099
      dxz     :     0.020859
      dyz     :     0.022295
      dx2y2   :     0.009473
      dxy     :     0.012433
 19 C s       :     2.864270  s :     2.864270
      pz      :     1.035806  p :     3.078254
      px      :     1.019684
      py      :     1.022764
      dz2     :     0.024585  d :     0.108519
      dxz     :     0.024901
      dyz     :     0.023773
      dx2y2   :     0.020097
      dxy     :     0.015163
 20 C s       :     2.912638  s :     2.912638
      pz      :     1.006490  p :     3.183874
      px      :     1.079064
      py      :     1.098320
      dz2     :     0.029833  d :     0.101658
      dxz     :     0.019692
      dyz     :     0.020021
      dx2y2   :     0.014538
      dxy     :     0.017575
 21 H s       :     0.894108  s :     0.894108
      pz      :     0.015819  p :     0.068084
      px      :     0.021021
      py      :     0.031244
 22 C s       :     2.809232  s :     2.809232
      pz      :     1.011003  p :     3.140914
      px      :     1.079819
      py      :     1.050092
      dz2     :     0.020626  d :     0.090391
      dxz     :     0.020049
      dyz     :     0.015655
      dx2y2   :     0.017004
      dxy     :     0.017057
 23 H s       :     0.897363  s :     0.897363
      pz      :     0.020522  p :     0.078492
      px      :     0.022812
      py      :     0.035158
 24 H s       :     0.899535  s :     0.899535
      pz      :     0.023129  p :     0.076627
      px      :     0.036069
      py      :     0.017429
 25 C s       :     2.862399  s :     2.862399
      pz      :     1.047078  p :     3.109631
      px      :     1.044702
      py      :     1.017852
      dz2     :     0.014701  d :     0.083189
      dxz     :     0.018155
      dyz     :     0.012291
      dx2y2   :     0.015095
      dxy     :     0.022946
 26 H s       :     0.905498  s :     0.905498
      pz      :     0.034109  p :     0.062062
      px      :     0.014356
      py      :     0.013597
 27 H s       :     0.909651  s :     0.909651
      pz      :     0.020560  p :     0.057196
      px      :     0.025222
      py      :     0.011414
 28 C s       :     2.853330  s :     2.853330
      pz      :     1.059910  p :     3.146315
      px      :     1.046562
      py      :     1.039843
      dz2     :     0.014572  d :     0.068452
      dxz     :     0.020925
      dyz     :     0.004597
      dx2y2   :     0.007685
      dxy     :     0.020674
 29 H s       :     0.910716  s :     0.910716
      pz      :     0.025092  p :     0.059862
      px      :     0.023115
      py      :     0.011656
 30 H s       :     0.905312  s :     0.905312
      pz      :     0.011029  p :     0.062804
      px      :     0.023499
      py      :     0.028276
 31 H s       :     0.910760  s :     0.910760
      pz      :     0.034718  p :     0.066219
      px      :     0.018334
      py      :     0.013167
 32 H s       :     0.886212  s :     0.886212
      pz      :     0.013897  p :     0.064722
      px      :     0.018479
      py      :     0.032346
 33 H s       :     0.897134  s :     0.897134
      pz      :     0.027093  p :     0.074896
      px      :     0.025128
      py      :     0.022675


                      *****************************
                      * MAYER POPULATION ANALYSIS *
                      *****************************

  NA   - Mulliken gross atomic population
  ZA   - Total nuclear charge
  QA   - Mulliken gross atomic charge
  VA   - Mayer's total valence
  BVA  - Mayer's bonded valence
  FA   - Mayer's free valence

  ATOM       NA         ZA         QA         VA         BVA        FA
  0 S     15.8895    16.0000     0.1105     2.5021     2.5021     0.0000
  1 C      6.1599     6.0000    -0.1599     3.8272     3.8272     0.0000
  2 C      6.0715     6.0000    -0.0715     3.9515     3.9515    -0.0000
  3 C      5.9286     6.0000     0.0714     3.9049     3.9049    -0.0000
  4 C      6.1892     6.0000    -0.1892     3.9229     3.9229    -0.0000
  5 H      1.0183     1.0000    -0.0183     1.0147     1.0147    -0.0000
  6 C      5.9633     6.0000     0.0367     3.9608     3.9608    -0.0000
  7 H      0.9633     1.0000     0.0367     0.9813     0.9813    -0.0000
  8 H      0.9759     1.0000     0.0241     0.9860     0.9860    -0.0000
  9 C      6.0673     6.0000    -0.0673     4.0707     4.0707     0.0000
 10 H      0.9752     1.0000     0.0248     0.9729     0.9729     0.0000
 11 H      0.9743     1.0000     0.0257     0.9812     0.9812     0.0000
 12 C      6.0908     6.0000    -0.0908     3.9785     3.9785     0.0000
 13 H      0.9385     1.0000     0.0615     0.9880     0.9880     0.0000
 14 H      0.9597     1.0000     0.0403     0.9851     0.9851    -0.0000
 15 H      0.9453     1.0000     0.0547     0.9819     0.9819     0.0000
 16 S     15.8977    16.0000     0.1023     2.4683     2.4683    -0.0000
 17 C      6.0845     6.0000    -0.0845     3.8373     3.8373     0.0000
 18 C      6.0119     6.0000    -0.0119     3.9280     3.9280    -0.0000
 19 C      6.0788     6.0000    -0.0788     4.0586     4.0586     0.0000
 20 C      6.1266     6.0000    -0.1266     3.8861     3.8861    -0.0000
 21 H      0.9684     1.0000     0.0316     0.9978     0.9978    -0.0000
 22 C      5.9139     6.0000     0.0861     3.9398     3.9398    -0.0000
 23 H      0.9920     1.0000     0.0080     1.0001     1.0001    -0.0000
 24 H      0.9943     1.0000     0.0057     0.9931     0.9931     0.0000
 25 C      6.1365     6.0000    -0.1365     4.0450     4.0450     0.0000
 26 H      0.9521     1.0000     0.0479     0.9792     0.9792     0.0000
 27 H      0.9463     1.0000     0.0537     0.9728     0.9728     0.0000
 28 C      6.0495     6.0000    -0.0495     3.9907     3.9907    -0.0000
 29 H      0.9646     1.0000     0.0354     0.9917     0.9917    -0.0000
 30 H      0.9560     1.0000     0.0440     0.9850     0.9850    -0.0000
 31 H      0.9583     1.0000     0.0417     0.9858     0.9858     0.0000
 32 H      0.9158     1.0000     0.0842     0.9937     0.9937     0.0000
 33 H      0.9421     1.0000     0.0579     0.9961     0.9961     0.0000

  Mayer bond orders larger than 0.100000
B(  0-S ,  1-C ) :   1.1359 B(  0-S ,  4-C ) :   1.1772 B(  1-C ,  2-C ) :   1.6154 
B(  1-C , 32-H ) :   0.9603 B(  2-C ,  3-C ) :   1.2334 B(  2-C ,  6-C ) :   0.9994 
B(  3-C ,  4-C ) :   1.5426 B(  3-C ,  5-H ) :   1.0080 B(  4-C , 20-C ) :   1.0355 
B(  6-C ,  7-H ) :   0.9431 B(  6-C ,  8-H ) :   0.9450 B(  6-C ,  9-C ) :   1.0758 
B(  9-C , 10-H ) :   0.9494 B(  9-C , 11-H ) :   0.9541 B(  9-C , 12-C ) :   1.0731 
B( 12-C , 13-H ) :   0.9723 B( 12-C , 14-H ) :   0.9738 B( 12-C , 15-H ) :   0.9707 
B( 16-S , 17-C ) :   1.1655 B( 16-S , 20-C ) :   1.1204 B( 17-C , 18-C ) :   1.5965 
B( 17-C , 33-H ) :   0.9648 B( 18-C , 19-C ) :   1.2439 B( 18-C , 21-H ) :   0.9879 
B( 19-C , 20-C ) :   1.6050 B( 19-C , 22-C ) :   1.0508 B( 22-C , 23-H ) :   0.9321 
B( 22-C , 24-H ) :   0.9343 B( 22-C , 25-C ) :   1.0287 B( 25-C , 26-H ) :   0.9637 
B( 25-C , 27-H ) :   0.9561 B( 25-C , 28-C ) :   1.0694 B( 28-C , 29-H ) :   0.9736 
B( 28-C , 30-H ) :   0.9738 B( 28-C , 31-H ) :   0.9753 

-------
TIMINGS
-------

Total SCF time: 0 days 0 hours 0 min 33 sec 

Total time                  ....      33.059 sec
Sum of individual times     ....      31.971 sec  ( 96.7%)

Fock matrix formation       ....      29.818 sec  ( 90.2%)
  XC integration            ....       1.910 sec  (  6.4% of F)
    Basis function eval.    ....       0.236 sec  ( 12.4% of XC)
    Density eval.           ....       0.187 sec  (  9.8% of XC)
    XC-Functional eval.     ....       0.195 sec  ( 10.2% of XC)
    XC-Potential eval.      ....       0.200 sec  ( 10.5% of XC)
Diagonalization             ....       0.166 sec  (  0.5%)
Density matrix formation    ....       0.023 sec  (  0.1%)
Population analysis         ....       0.058 sec  (  0.2%)
Initial guess               ....       0.212 sec  (  0.6%)
Orbital Transformation      ....       0.000 sec  (  0.0%)
Orbital Orthonormalization  ....       0.000 sec  (  0.0%)
DIIS solution               ....       0.148 sec  (  0.4%)
SOSCF solution              ....       0.144 sec  (  0.4%)
Grid generation             ....       1.402 sec  (  4.2%)


-------------------------------------------------------------------------------
                          DFT DISPERSION CORRECTION                            
                                                                               
                              DFTD3 V3.1  Rev 1                                
                              USING zero damping                               
-------------------------------------------------------------------------------
The omegaB97X-D3 functional is recognized. Fit by Chai et al.
Active option DFTDOPT                   ...         3   

molecular C6(AA) [au] = 14181.978464 


            DFT-D V3
 parameters
 s6 scaling factor         :     1.0000 
 rs6 scaling factor        :     1.2810 
 s8 scaling factor         :     1.0000 
 rs8 scaling factor        :     1.0940 
 Damping factor alpha6     :    14.0000 
 Damping factor alpha8     :    16.0000 
 ad hoc parameters k1-k3   :    16.0000     1.3333    -4.0000 

 Edisp/kcal,au: -9.271482950246  -0.014775046983 
 E6   /kcal   :  -4.223930894 
 E8   /kcal   :  -5.047552056 
 % E8         :  54.441690538 

-------------------------   ----------------
Dispersion correction           -0.014775047
-------------------------   ----------------


-------------------------   --------------------
FINAL SINGLE POINT ENERGY     -1339.866536489686
-------------------------   --------------------


                            ***************************************
                            *     ORCA property calculations      *
                            ***************************************

                                    ---------------------
                                    Active property flags
                                    ---------------------
   (+) Dipole Moment


------------------------------------------------------------------------------
                       ORCA ELECTRIC PROPERTIES CALCULATION
------------------------------------------------------------------------------

Dipole Moment Calculation                       ... on
Quadrupole Moment Calculation                   ... off
Polarizability Calculation                      ... off
GBWName                                         ... config_9036.gbw
Electron density file                           ... config_9036.scfp
The origin for moment calculation is the CENTER OF MASS  = (-213.965297, 106.163471 215.847844)

-------------
DIPOLE MOMENT
-------------
                                X             Y             Z
Electronic contribution:    -16.21670     -14.87564     -14.77594
Nuclear contribution   :     16.51777      15.26391      15.19386
                        -----------------------------------------
Total Dipole Moment    :      0.30107       0.38827       0.41792
                        -----------------------------------------
Magnitude (a.u.)       :      0.64502
Magnitude (Debye)      :      1.63952



--------------------
Rotational spectrum 
--------------------
 
Rotational constants in cm-1:     0.017906     0.008760     0.006983 
Rotational constants in MHz :   536.796012   262.624005   209.334294 

 Dipole components along the rotational axes: 
x,y,z [a.u.] :     0.077087     0.640206    -0.015737 
x,y,z [Debye]:     0.195939     1.627273    -0.040001 

 

Timings for individual modules:

Sum of individual times         ...       34.421 sec (=   0.574 min)
GTO integral calculation        ...        0.932 sec (=   0.016 min)   2.7 %
SCF iterations                  ...       33.489 sec (=   0.558 min)  97.3 %
                             ****ORCA TERMINATED NORMALLY****
TOTAL RUN TIME: 0 days 0 hours 0 minutes 35 seconds 165 msec
