
                                 *****************
                                 * O   R   C   A *
                                 *****************

           --- An Ab Initio, DFT and Semiempirical electronic structure package ---

                  #######################################################
                  #                        -***-                        #
                  #          Department of theory and spectroscopy      #
                  #               Directorship: Frank Neese             #
                  #        Max Planck Institute fuer Kohlenforschung    #
                  #                Kaiser Wilhelm Platz 1               #
                  #                 D-45470 Muelheim/Ruhr               #
                  #                      Germany                        #
                  #                                                     #
                  #                  All rights reserved                #
                  #                        -***-                        #
                  #######################################################


                         Program Version 4.2.1 -  RELEASE  -


 With contributions from (in alphabetic order):
   Daniel Aravena         : Magnetic Suceptibility
   Michael Atanasov       : Ab Initio Ligand Field Theory (pilot matlab implementation)
   Alexander A. Auer      : GIAO ZORA, VPT2
   Ute Becker             : Parallelization
   Giovanni Bistoni       : ED, misc. LED, open-shell LED, HFLD
   Martin Brehm           : Molecular dynamics
   Dmytro Bykov           : SCF Hessian
   Vijay G. Chilkuri      : MRCI spin determinant printing, contributions to CSF-ICE
   Dipayan Datta          : RHF DLPNO-CCSD density
   Achintya Kumar Dutta   : EOM-CC, STEOM-CC
   Dmitry Ganyushin       : Spin-Orbit,Spin-Spin,Magnetic field MRCI
   Miquel Garcia          : C-PCM Hessian, Gaussian charge scheme
   Yang Guo               : DLPNO-NEVPT2, CIM, IAO-localization
   Andreas Hansen         : Spin unrestricted coupled pair/coupled cluster methods
   Benjamin Helmich-Paris : CASSCF linear response (MC-RPA)
   Lee Huntington         : MR-EOM, pCC
   Robert Izsak           : Overlap fitted RIJCOSX, COSX-SCS-MP3, EOM
   Christian Kollmar      : KDIIS, OOCD, Brueckner-CCSD(T), CCSD density
   Simone Kossmann        : Meta GGA functionals, TD-DFT gradient, OOMP2, MP2 Hessian
   Martin Krupicka        : AUTO-CI
   Lucas Lang             : DCDCAS
   Dagmar Lenk            : GEPOL surface, SMD
   Dimitrios Liakos       : Extrapolation schemes; Compound Job, initial MDCI parallelization
   Dimitrios Manganas     : Further ROCIS development; embedding schemes
   Dimitrios Pantazis     : SARC Basis sets
   Taras Petrenko         : DFT Hessian,TD-DFT gradient, ASA, ECA, R-Raman, ABS, FL, XAS/XES, NRVS
   Peter Pinski           : DLPNO-MP2, DLPNO-MP2 Gradient
   Christoph Reimann      : Effective Core Potentials
   Marius Retegan         : Local ZFS, SOC
   Christoph Riplinger    : Optimizer, TS searches, QM/MM, DLPNO-CCSD(T), (RO)-DLPNO pert. Triples
   Tobias Risthaus        : Range-separated hybrids, TD-DFT gradient, RPA, STAB
   Michael Roemelt        : Original ROCIS implementation
   Masaaki Saitow         : Open-shell DLPNO-CCSD energy and density
   Barbara Sandhoefer     : DKH picture change effects
   Avijit Sen             : IP-ROCIS
   Kantharuban Sivalingam : CASSCF convergence, NEVPT2, FIC-MRCI
   Bernardo de Souza      : ESD, SOC TD-DFT
   Georgi Stoychev        : AutoAux, RI-MP2 NMR
   Willem Van den Heuvel  : Paramagnetic NMR
   Boris Wezisla          : Elementary symmetry handling
   Frank Wennmohs         : Technical directorship


 We gratefully acknowledge several colleagues who have allowed us to
 interface, adapt or use parts of their codes:
   Stefan Grimme, W. Hujo, H. Kruse,             : VdW corrections, initial TS optimization,
                  C. Bannwarth                     DFT functionals, gCP, sTDA/sTD-DF
   Ed Valeev, F. Pavosevic, A. Kumar             : LibInt (2-el integral package), F12 methods
   Garnet Chan, S. Sharma, J. Yang, R. Olivares  : DMRG
   Ulf Ekstrom                                   : XCFun DFT Library
   Mihaly Kallay                                 : mrcc  (arbitrary order and MRCC methods)
   Andreas Klamt, Michael Diedenhofen            : otool_cosmo (COSMO solvation model)
   Jiri Pittner, Ondrej Demel                    : Mk-CCSD
   Frank Weinhold                                : gennbo (NPA and NBO analysis)
   Christopher J. Cramer and Donald G. Truhlar   : smd solvation model
   Lars Goerigk                                  : TD-DFT with DH, B97 family of functionals
   V. Asgeirsson, H. Jonsson                     : NEB implementation
   FAccTs GmbH                                   : IRC, NEB, NEB-TS, Multilevel, MM, QM/MM, CI optimization
   S Lehtola, MJT Oliveira, MAL Marques          : LibXC Library


 Your calculation uses the libint2 library for the computation of 2-el integrals
 For citations please refer to: http://libint.valeyev.net

 Your ORCA version has been built with support for libXC version: 4.2.3
 For citations please refer to: https://tddft.org/programs/libxc/

 This ORCA versions uses:
   CBLAS   interface :  Fast vector & matrix operations
   LAPACKE interface :  Fast linear algebra routines
   SCALAPACK package :  Parallel linear algebra routines


Your calculation utilizes the atom-pairwise dispersion correction
with the zero-damping scheme (D30)
Cite in your paper:
S.Grimme, J.Antony, S.Ehrlich and H.Krieg, J.Chem.Phys., 132, (2010), 154104 
   

XCFun DFT library Copyright 2009-2010 Ulf Ekstrom and contributors.
See http://admol.org/xcfun for more information. This is free soft-
ware; see the source code for copying conditions. There is ABSOLUTELY
NO WARRANTY; not even for MERCHANTABILITY or FITNESS FOR A PARTICULAR
PURPOSE. For details see the documentation. Scientific users of this 
library should cite U. Ekstrom, L. Visscher, R. Bast, A. J. Thorvald-
sen and K. Ruud; J.Chem.Theor.Comp. 2010, DOI: 10.1021/ct100117s
XCFun Version 0.99 
----- Orbital basis set information -----
Your calculation utilizes the basis: def2-SVP
   F. Weigend and R. Ahlrichs, Phys. Chem. Chem. Phys. 7, 3297 (2005).

================================================================================
                                        WARNINGS
                       Please study these warnings very carefully!
================================================================================


INFO   : the flag for use of LIBINT has been found!

================================================================================
                                       INPUT FILE
================================================================================
NAME = config_8718.inp
|  1> ! wB97X-D3 SP def2-SVP
|  2> %pal
|  3> nprocs 16
|  4> end
|  5> 
|  6> * xyz 0 1
|  7> S 	 -96.9729 	 38.4811 	 121.456 	 
|  8> C 	 -96.6549 	 37.6657 	 123.025 	 
|  9> C 	 -96.83 	 38.5742 	 124.089 	 
| 10> C 	 -97.5685 	 39.7508 	 123.684 	 
| 11> C 	 -97.8526 	 39.7268 	 122.325 	 
| 12> H 	 -97.9485 	 40.5837 	 124.28 	 
| 13> C 	 -96.3307 	 38.157 	 125.42 	 
| 14> H 	 -95.5801 	 37.3262 	 125.324 	 
| 15> H 	 -97.1636 	 37.7509 	 125.932 	 
| 16> C 	 -95.7549 	 39.3424 	 126.177 	 
| 17> H 	 -94.968 	 39.8609 	 125.572 	 
| 18> H 	 -96.5432 	 40.0728 	 126.281 	 
| 19> C 	 -95.1915 	 39.0021 	 127.568 	 
| 20> H 	 -94.8219 	 39.8655 	 128.117 	 
| 21> H 	 -95.8827 	 38.535 	 128.285 	 
| 22> H 	 -94.3926 	 38.3344 	 127.387 	 
| 23> S 	 -97.2974 	 41.8659 	 120.709 	 
| 24> C 	 -98.5191 	 43.0912 	 120.404 	 
| 25> C 	 -99.6282 	 42.8664 	 121.175 	 
| 26> C 	 -99.6034 	 41.5789 	 121.732 	 
| 27> C 	 -98.3829 	 40.8761 	 121.6 	 
| 28> H 	 -100.306 	 43.679 	 121.306 	 
| 29> C 	 -100.769 	 41.1507 	 122.648 	 
| 30> H 	 -100.817 	 41.9026 	 123.502 	 
| 31> H 	 -100.492 	 40.278 	 123.184 	 
| 32> C 	 -102.148 	 40.8342 	 121.985 	 
| 33> H 	 -102.044 	 40.4308 	 120.953 	 
| 34> H 	 -102.687 	 41.7441 	 121.779 	 
| 35> C 	 -103.031 	 39.7445 	 122.628 	 
| 36> H 	 -103.376 	 40.0898 	 123.647 	 
| 37> H 	 -102.496 	 38.8368 	 122.808 	 
| 38> H 	 -103.889 	 39.4809 	 121.972 	 
| 39> H 	 -95.8962 	 36.8525 	 123.108 	 
| 40> H 	 -98.561 	 43.9349 	 119.753 	 
| 41> *
| 42> 
| 43>                          ****END OF INPUT****
================================================================================

                       ****************************
                       * Single Point Calculation *
                       ****************************

---------------------------------
CARTESIAN COORDINATES (ANGSTROEM)
---------------------------------
  S    -96.972900   38.481100  121.456000
  C    -96.654900   37.665700  123.025000
  C    -96.830000   38.574200  124.089000
  C    -97.568500   39.750800  123.684000
  C    -97.852600   39.726800  122.325000
  H    -97.948500   40.583700  124.280000
  C    -96.330700   38.157000  125.420000
  H    -95.580100   37.326200  125.324000
  H    -97.163600   37.750900  125.932000
  C    -95.754900   39.342400  126.177000
  H    -94.968000   39.860900  125.572000
  H    -96.543200   40.072800  126.281000
  C    -95.191500   39.002100  127.568000
  H    -94.821900   39.865500  128.117000
  H    -95.882700   38.535000  128.285000
  H    -94.392600   38.334400  127.387000
  S    -97.297400   41.865900  120.709000
  C    -98.519100   43.091200  120.404000
  C    -99.628200   42.866400  121.175000
  C    -99.603400   41.578900  121.732000
  C    -98.382900   40.876100  121.600000
  H    -100.306000   43.679000  121.306000
  C    -100.769000   41.150700  122.648000
  H    -100.817000   41.902600  123.502000
  H    -100.492000   40.278000  123.184000
  C    -102.148000   40.834200  121.985000
  H    -102.044000   40.430800  120.953000
  H    -102.687000   41.744100  121.779000
  C    -103.031000   39.744500  122.628000
  H    -103.376000   40.089800  123.647000
  H    -102.496000   38.836800  122.808000
  H    -103.889000   39.480900  121.972000
  H    -95.896200   36.852500  123.108000
  H    -98.561000   43.934900  119.753000

----------------------------
CARTESIAN COORDINATES (A.U.)
----------------------------
  NO LB      ZA    FRAG     MASS         X           Y           Z
   0 S    16.0000    0    32.060  -183.252223   72.718740  229.518577
   1 C     6.0000    0    12.011  -182.651291   71.177858  232.483558
   2 C     6.0000    0    12.011  -182.982182   72.894674  234.494226
   3 C     6.0000    0    12.011  -184.377744   75.118126  233.728887
   4 C     6.0000    0    12.011  -184.914615   75.072772  231.160749
   5 H     1.0000    0     1.008  -185.095840   76.692079  234.855164
   6 C     6.0000    0    12.011  -182.038641   72.106280  237.009452
   7 H     1.0000    0     1.008  -180.620213   70.536296  236.828038
   8 H     1.0000    0     1.008  -183.612594   71.338862  237.976991
   9 C     6.0000    0    12.011  -180.950537   74.346361  238.439974
  10 H     1.0000    0     1.008  -179.463511   75.326184  237.296690
  11 H     1.0000    0     1.008  -182.440208   75.726617  238.636506
  12 C     6.0000    0    12.011  -179.885865   73.703288  241.068583
  13 H     1.0000    0     1.008  -179.187422   75.334877  242.106043
  14 H     1.0000    0     1.008  -181.192044   72.820597  242.423517
  15 H     1.0000    0     1.008  -178.376163   72.441518  240.726543
  16 S    16.0000    0    32.060  -183.865440   79.115085  228.106952
  17 C     6.0000    0    12.011  -186.174118   81.430567  227.530585
  18 C     6.0000    0    12.011  -188.270013   81.005756  228.987564
  19 C     6.0000    0    12.011  -188.223148   78.572734  230.040142
  20 C     6.0000    0    12.011  -185.916737   77.244634  229.790698
  21 H     1.0000    0     1.008  -189.550870   82.541348  229.235118
  22 C     6.0000    0    12.011  -190.425813   77.763553  231.771131
  23 H     1.0000    0     1.008  -190.516520   79.184438  233.384957
  24 H     1.0000    0     1.008  -189.902359   76.114389  232.784024
  25 C     6.0000    0    12.011  -193.031745   77.165455  230.518242
  26 H     1.0000    0     1.008  -192.835214   76.403139  228.568045
  27 H     1.0000    0     1.008  -194.050308   78.884917  230.128959
  28 C     6.0000    0    12.011  -194.700373   75.106220  231.733336
  29 H     1.0000    0     1.008  -195.352329   75.758743  233.658967
  30 H     1.0000    0     1.008  -193.689370   73.390916  232.073487
  31 H     1.0000    0     1.008  -196.321758   74.608089  230.493676
  32 H     1.0000    0     1.008  -181.217555   69.641132  232.640405
  33 H     1.0000    0     1.008  -186.253297   83.024929  226.300374

--------------------------------
INTERNAL COORDINATES (ANGSTROEM)
--------------------------------
 S      0   0   0     0.000000000000     0.00000000     0.00000000
 C      1   0   0     1.796597383946     0.00000000     0.00000000
 C      2   1   0     1.410010021241   110.15727369     0.00000000
 C      3   2   1     1.446995096744   112.09183246    16.63693732
 C      4   3   2     1.388585542918   111.36405152   356.45771560
 H      4   3   2     1.092400297510   130.15097349   173.48524432
 C      3   2   1     1.481525338967   117.04186786   192.78907824
 H      7   3   2     1.123763765210   110.88824090    19.19835370
 H      7   3   2     1.058670685341   106.10290830   264.00409497
 C      7   3   2     1.519792025246   110.82593079   143.56193848
 H     10   7   3     1.119856624752   110.99343315   305.46478722
 H     10   7   3     1.079683773148   107.39804390    59.22685405
 C     10   7   3     1.538864727648   114.61138676   180.80923593
 H     13  10   7     1.087871646841   113.89379465   182.51705018
 H     13  10   7     1.100013113558   116.93835994   302.31483874
 H     13  10   7     1.056799649886   105.16921557    62.83067728
 S      5   4   3     2.737782286815   121.51271480   230.34921473
 C     17   5   4     1.756967836928   120.42085664   267.23638434
 C     18  17   5     1.369335185409   110.54650533     6.31471459
 C     19  18  17     1.403039660879   111.09150013   345.93654201
 C     20  19  18     1.414557206337   115.72963749    10.64343004
 H     19  18  17     1.066251658850   117.31865984   161.97309618
 C     20  19  18     1.543060141407   118.48723339   179.30921941
 H     23  20  19     1.138847491985   107.08393947   302.30744761
 H     23  20  19     1.060957251731   109.32606831   194.72615465
 C     23  20  19     1.562492319981   118.09894432    73.29829450
 H     26  23  20     1.112911299251   112.60781847    30.51892660
 H     26  23  20     1.077439098047   110.58377187   279.44734609
 C     26  23  20     1.542914155097   118.11957799   147.16187069
 H     29  26  23     1.129875254176   109.55764113    66.38838666
 H     29  26  23     1.068898634109   112.54990767   309.84846974
 H     29  26  23     1.111748604676   111.29835878   190.35830943
 H      2   1   3     1.115261821278   121.08701687   212.75987773
 H     18  17   5     1.066483145671   133.23530827   186.97219713

---------------------------
INTERNAL COORDINATES (A.U.)
---------------------------
 S      0   0   0     0.000000000000     0.00000000     0.00000000
 C      1   0   0     3.395077028576     0.00000000     0.00000000
 C      2   1   0     2.664532786230   110.15727369     0.00000000
 C      3   2   1     2.734424449972   112.09183246    16.63693732
 C      4   3   2     2.624046389637   111.36405152   356.45771560
 H      4   3   2     2.064337390908   130.15097349   173.48524432
 C      3   2   1     2.799677151112   117.04186786   192.78907824
 H      7   3   2     2.123605755472   110.88824090    19.19835370
 H      7   3   2     2.000597661305   106.10290830   264.00409497
 C      7   3   2     2.871990708232   110.82593079   143.56193848
 H     10   7   3     2.116222330038   110.99343315   305.46478722
 H     10   7   3     2.040306642489   107.39804390    59.22685405
 C     10   7   3     2.908032892407   114.61138676   180.80923593
 H     13  10   7     2.055779481387   113.89379465   182.51705018
 H     13  10   7     2.078723528347   116.93835994   302.31483874
 H     13  10   7     1.997061916709   105.16921557    62.83067728
 S      5   4   3     5.173658736382   121.51271480   230.34921473
 C     17   5   4     3.320188037902   120.42085664   267.23638434
 C     18  17   5     2.587668485966   110.54650533     6.31471459
 C     19  18  17     2.651360714091   111.09150013   345.93654201
 C     20  19  18     2.673125720742   115.72963749    10.64343004
 H     19  18  17     2.014923625065   117.31865984   161.97309618
 C     20  19  18     2.915961075430   118.48723339   179.30921941
 H     23  20  19     2.152109868154   107.08393947   302.30744761
 H     23  20  19     2.004918645569   109.32606831   194.72615465
 C     23  20  19     2.952682571120   118.09894432    73.29829450
 H     26  23  20     2.103097566930   112.60781847    30.51892660
 H     26  23  20     2.036064821288   110.58377187   279.44734609
 C     26  23  20     2.915685201285   118.11957799   147.16187069
 H     29  26  23     2.135154795888   109.55764113    66.38838666
 H     29  26  23     2.019925683388   112.54990767   309.84846974
 H     29  26  23     2.100900392608   111.29835878   190.35830943
 H      2   1   3     2.107539409833   121.08701687   212.75987773
 H     18  17   5     2.015361071761   133.23530827   186.97219713

---------------------
BASIS SET INFORMATION
---------------------
There are 3 groups of distinct atoms

 Group   1 Type S   : 10s7p1d contracted to 4s3p1d pattern {5311/511/1}
 Group   2 Type C   : 7s4p1d contracted to 3s2p1d pattern {511/31/1}
 Group   3 Type H   : 4s1p contracted to 2s1p pattern {31/1}

Atom   0S    basis set group =>   1
Atom   1C    basis set group =>   2
Atom   2C    basis set group =>   2
Atom   3C    basis set group =>   2
Atom   4C    basis set group =>   2
Atom   5H    basis set group =>   3
Atom   6C    basis set group =>   2
Atom   7H    basis set group =>   3
Atom   8H    basis set group =>   3
Atom   9C    basis set group =>   2
Atom  10H    basis set group =>   3
Atom  11H    basis set group =>   3
Atom  12C    basis set group =>   2
Atom  13H    basis set group =>   3
Atom  14H    basis set group =>   3
Atom  15H    basis set group =>   3
Atom  16S    basis set group =>   1
Atom  17C    basis set group =>   2
Atom  18C    basis set group =>   2
Atom  19C    basis set group =>   2
Atom  20C    basis set group =>   2
Atom  21H    basis set group =>   3
Atom  22C    basis set group =>   2
Atom  23H    basis set group =>   3
Atom  24H    basis set group =>   3
Atom  25C    basis set group =>   2
Atom  26H    basis set group =>   3
Atom  27H    basis set group =>   3
Atom  28C    basis set group =>   2
Atom  29H    basis set group =>   3
Atom  30H    basis set group =>   3
Atom  31H    basis set group =>   3
Atom  32H    basis set group =>   3
Atom  33H    basis set group =>   3


           ************************************************************
           *        Program running with 16 parallel MPI-processes    *
           *              working on a common directory               *
           ************************************************************
------------------------------------------------------------------------------
                           ORCA GTO INTEGRAL CALCULATION
------------------------------------------------------------------------------

                         BASIS SET STATISTICS AND STARTUP INFO

 # of primitive gaussian shells          ...  294
 # of primitive gaussian functions       ...  534
 # of contracted shells                  ...  154
 # of contracted basis functions         ...  322
 Highest angular momentum                ...    2
 Maximum contraction depth               ...    5
 Integral package used                   ... LIBINT
 Integral threshhold            Thresh   ...  1.000e-10
 Primitive cut-off              TCut     ...  1.000e-11


------------------------------ INTEGRAL EVALUATION ----------------------------


 * One electron integrals 
 Pre-screening matrix                    ... done
 Shell pair data                         ... done (   0.003 sec)



           ************************************************************
           *        Program running with 16 parallel MPI-processes    *
           *              working on a common directory               *
           ************************************************************
-------------------------------------------------------------------------------
                                 ORCA SCF
-------------------------------------------------------------------------------

------------
SCF SETTINGS
------------
Hamiltonian:
 Density Functional     Method          .... DFT(GTOs)
 Exchange Functional    Exchange        .... WB97X-D3
 Correlation Functional Correlation     .... WB97X-D3
 Gradients option       PostSCFGGA      .... off
 Hybrid DFT is turned on
   Fraction HF Exchange ScalHFX         ....  0.195728
   Scaling of DF-GGA-X  ScalDFX         ....  0.000000
   Scaling of DF-GGA-C  ScalDFC         ....  1.000000
   Scaling of DF-LDA-C  ScalLDAC        ....  1.000000
   Perturbative correction              ....  0.000000
   Density functional embedding theory  .... OFF
 Long-range corrected/Screened/Range-Separated Hybrid DFT is turned on
   Amount of maximum screened exact exchange              ....  0.804272
   Range separation parameter mu (erf(mu*r12)/r12)        ....  0.250000


General Settings:
 Integral files         IntName         .... config_8718
 Hartree-Fock type      HFTyp           .... RHF
 Total Charge           Charge          ....    0
 Multiplicity           Mult            ....    1
 Number of Electrons    NEL             ....  134
 Basis Dimension        Dim             ....  322
 Nuclear Repulsion      ENuc            ....   1266.9105242994 Eh

Convergence Acceleration:
 DIIS                   CNVDIIS         .... on
   Start iteration      DIISMaxIt       ....    12
   Startup error        DIISStart       ....  0.200000
   # of expansion vecs  DIISMaxEq       ....     5
   Bias factor          DIISBfac        ....   1.050
   Max. coefficient     DIISMaxC        ....  10.000
 Newton-Raphson         CNVNR           .... off
 SOSCF                  CNVSOSCF        .... on
   Start iteration      SOSCFMaxIt      ....   150
   Startup grad/error   SOSCFStart      ....  0.003300
 Level Shifting         CNVShift        .... on
   Level shift para.    LevelShift      ....    0.2500
   Turn off err/grad.   ShiftErr        ....    0.0010
 Zerner damping         CNVZerner       .... off
 Static damping         CNVDamp         .... on
   Fraction old density DampFac         ....    0.7000
   Max. Damping (<1)    DampMax         ....    0.9800
   Min. Damping (>=0)   DampMin         ....    0.0000
   Turn off err/grad.   DampErr         ....    0.1000
 Fernandez-Rico         CNVRico         .... off

SCF Procedure:
 Maximum # iterations   MaxIter         ....   125
 SCF integral mode      SCFMode         .... Direct
   Integral package                     .... LIBINT
 Reset frequency        DirectResetFreq ....    20
 Integral Threshold     Thresh          ....  1.000e-10 Eh
 Primitive CutOff       TCut            ....  1.000e-11 Eh

Convergence Tolerance:
 Convergence Check Mode ConvCheckMode   .... Total+1el-Energy
 Convergence forced     ConvForced      .... 0
 Energy Change          TolE            ....  1.000e-06 Eh
 1-El. energy change                    ....  1.000e-03 Eh
 Orbital Gradient       TolG            ....  5.000e-05
 Orbital Rotation angle TolX            ....  5.000e-05
 DIIS Error             TolErr          ....  1.000e-06


Diagonalization of the overlap matrix:
Smallest eigenvalue                        ... 7.473e-04
Time for diagonalization                   ...    0.016 sec
Threshold for overlap eigenvalues          ... 1.000e-08
Number of eigenvalues below threshold      ... 0
Time for construction of square roots      ...    0.022 sec
Total time needed                          ...    0.038 sec

-------------------
DFT GRID GENERATION
-------------------

General Integration Accuracy     IntAcc      ...  4.340
Radial Grid Type                 RadialGrid  ... Gauss-Chebyshev
Angular Grid (max. acc.)         AngularGrid ... Lebedev-110
Angular grid pruning method      GridPruning ... 3 (G Style)
Weight generation scheme         WeightScheme... Becke
Basis function cutoff            BFCut       ...    1.0000e-10
Integration weight cutoff        WCut        ...    1.0000e-14
Grids for H and He will be reduced by one unit

# of grid points (after initial pruning)     ...  41088 (   0.0 sec)
# of grid points (after weights+screening)   ...  37109 (   0.0 sec)
nearest neighbour list constructed           ...    0.0 sec
Grid point re-assignment to atoms done       ...    0.0 sec
Grid point division into batches done        ...    0.0 sec
Reduced shell lists constructed in    0.1 sec

Total number of grid points                  ...    37109
Total number of batches                      ...      599
Average number of points per batch           ...       61
Average number of grid points per atom       ...     1091
Average number of shells per batch           ...    73.77 (47.90%)
Average number of basis functions per batch  ...   145.31 (45.13%)
Average number of large shells per batch     ...    45.62 (61.84%)
Average number of large basis fcns per batch ...    94.18 (64.81%)
Maximum spatial batch extension              ...  17.98, 13.37, 17.28 au
Average spatial batch extension              ...   0.23,  0.20,  0.21 au

Time for grid setup =    0.218 sec

------------------------------
INITIAL GUESS: MODEL POTENTIAL
------------------------------
Loading Hartree-Fock densities                     ... done
Calculating cut-offs                               ... done
Setting up the integral package                    ... done
Initializing the effective Hamiltonian             ... done
Starting the Coulomb interaction                   ... done (   0.0 sec)
Reading the grid                                   ... done
Mapping shells                                     ... done
Starting the XC term evaluation                    ... done (   0.0 sec)
  promolecular density results
     # of electrons  =    133.998751772
     EX              =   -126.695744483
     EC              =     -4.613732512
     EX+EC           =   -131.309476995
Transforming the Hamiltonian                       ... done (   0.0 sec)
Diagonalizing the Hamiltonian                      ... done (   0.0 sec)
Back transforming the eigenvectors                 ... done (   0.0 sec)
Now organizing SCF variables                       ... done
                      ------------------
                      INITIAL GUESS DONE (   0.4 sec)
                      ------------------
--------------
SCF ITERATIONS
--------------
ITER       Energy         Delta-E        Max-DP      RMS-DP      [F,P]     Damp
               ***  Starting incremental Fock matrix formation  ***
  0  -1339.4081104090   0.000000000000 0.06537833  0.00155914  0.1604508 0.7000
  1  -1339.5928142857  -0.184703876755 0.04401105  0.00113865  0.0971173 0.7000
                               ***Turning on DIIS***
  2  -1339.6825967258  -0.089782440018 0.07854474  0.00213111  0.0503443 0.0000
  3  -1339.8179993576  -0.135402631815 0.04319991  0.00099004  0.0365693 0.0000
  4  -1339.8471810346  -0.029181677022 0.00781368  0.00020965  0.0077351 0.0000
                      *** Initiating the SOSCF procedure ***
                           *** Shutting down DIIS ***
                      *** Re-Reading the Fockian *** 
                      *** Removing any level shift *** 
ITER      Energy       Delta-E        Grad      Rot      Max-DP    RMS-DP
  5  -1339.84810812  -0.0009270805  0.001667  0.001667  0.003338  0.000106
               *** Restarting incremental Fock matrix formation ***
  6  -1339.84830952  -0.0002014070  0.001536  0.004353  0.002673  0.000071
  7  -1339.84837999  -0.0000704685  0.000899  0.005882  0.003436  0.000074
  8  -1339.84839946  -0.0000194717  0.000334  0.000659  0.000862  0.000023
  9  -1339.84840549  -0.0000060243  0.000181  0.000551  0.000389  0.000010
 10  -1339.84840608  -0.0000005969  0.000091  0.000311  0.000181  0.000004
                 **** Energy Check signals convergence ****
              ***Rediagonalizing the Fockian in SOSCF/NRSCF***

               *****************************************************
               *                     SUCCESS                       *
               *           SCF CONVERGED AFTER  11 CYCLES          *
               *****************************************************

Setting up the final grid:

General Integration Accuracy     IntAcc      ...  4.670
Radial Grid Type                 RadialGrid  ... Gauss-Chebyshev
Angular Grid (max. acc.)         AngularGrid ... Lebedev-302
Angular grid pruning method      GridPruning ... 3 (G Style)
Weight generation scheme         WeightScheme... Becke
Basis function cutoff            BFCut       ...    1.0000e-10
Integration weight cutoff        WCut        ...    1.0000e-14
Grids for H and He will be reduced by one unit

# of grid points (after initial pruning)     ... 161752 (   0.0 sec)
# of grid points (after weights+screening)   ... 143418 (   0.2 sec)
nearest neighbour list constructed           ...    0.0 sec
Grid point re-assignment to atoms done       ...    0.0 sec
Grid point division into batches done        ...    0.5 sec
Reduced shell lists constructed in    0.6 sec

Total number of grid points                  ...   143418
Total number of batches                      ...     2256
Average number of points per batch           ...       63
Average number of grid points per atom       ...     4218
Average number of shells per batch           ...    68.33 (44.37%)
Average number of basis functions per batch  ...   134.37 (41.73%)
Average number of large shells per batch     ...    41.05 (60.07%)
Average number of large basis fcns per batch ...    84.65 (63.00%)
Maximum spatial batch extension              ...  15.23, 15.66, 13.72 au
Average spatial batch extension              ...   0.15,  0.14,  0.14 au

Final grid set up in    1.1 sec
Final integration                            ... done (   0.4 sec)
Change in XC energy                          ...     0.007370392
Integrated number of electrons               ...   133.999942252
Previous integrated no of electrons          ...   134.005461674

----------------
TOTAL SCF ENERGY
----------------

Total Energy       :        -1339.84103602 Eh          -36458.92813 eV

Components:
Nuclear Repulsion  :         1266.91052430 Eh           34474.38801 eV
Electronic Energy  :        -2606.75156032 Eh          -70933.31614 eV
One Electron Energy:        -4350.46015122 Eh         -118382.03914 eV
Two Electron Energy:         1743.70859090 Eh           47448.72300 eV

Virial components:
Potential Energy   :        -2671.23057899 Eh          -72687.87943 eV
Kinetic Energy     :         1331.38954297 Eh           36228.95131 eV
Virial Ratio       :            2.00634787


DFT components:
N(Alpha)           :       66.999971125953 electrons
N(Beta)            :       66.999971125953 electrons
N(Total)           :      133.999942251907 electrons
E(XC)              :      -94.223023662872 Eh       
DFET-embed. en.    :        0.000000000000 Eh       

---------------
SCF CONVERGENCE
---------------

  Last Energy change         ...   -3.2960e-07  Tolerance :   1.0000e-06
  Last MAX-Density change    ...    4.0274e-05  Tolerance :   1.0000e-05
  Last RMS-Density change    ...    8.5331e-07  Tolerance :   1.0000e-06
  Last Orbital Gradient      ...    1.0515e-05  Tolerance :   5.0000e-05
  Last Orbital Rotation      ...    2.3686e-05  Tolerance :   5.0000e-05

             **** THE GBW FILE WAS UPDATED (config_8718.gbw) ****
             **** DENSITY FILE WAS UPDATED (config_8718.scfp) ****
             **** ENERGY FILE WAS UPDATED (config_8718.en.tmp) ****
             **** THE GBW FILE WAS UPDATED (config_8718.gbw) ****
             **** DENSITY FILE WAS UPDATED (config_8718.scfp) ****
----------------
ORBITAL ENERGIES
----------------

  NO   OCC          E(Eh)            E(eV) 
   0   2.0000     -88.967186     -2420.9202 
   1   2.0000     -88.966224     -2420.8940 
   2   2.0000     -10.333387      -281.1858 
   3   2.0000     -10.325431      -280.9693 
   4   2.0000     -10.318841      -280.7899 
   5   2.0000     -10.312334      -280.6129 
   6   2.0000     -10.308833      -280.5176 
   7   2.0000     -10.304806      -280.4080 
   8   2.0000     -10.303285      -280.3666 
   9   2.0000     -10.292335      -280.0687 
  10   2.0000     -10.292197      -280.0649 
  11   2.0000     -10.290247      -280.0118 
  12   2.0000     -10.286707      -279.9155 
  13   2.0000     -10.285165      -279.8736 
  14   2.0000     -10.280411      -279.7442 
  15   2.0000     -10.277390      -279.6620 
  16   2.0000      -8.081212      -219.9010 
  17   2.0000      -8.081163      -219.8996 
  18   2.0000      -6.039671      -164.3478 
  19   2.0000      -6.039621      -164.3464 
  20   2.0000      -6.036103      -164.2507 
  21   2.0000      -6.035587      -164.2367 
  22   2.0000      -6.031956      -164.1379 
  23   2.0000      -6.031812      -164.1340 
  24   2.0000      -1.008210       -27.4348 
  25   2.0000      -0.983072       -26.7508 
  26   2.0000      -0.919074       -25.0093 
  27   2.0000      -0.896593       -24.3975 
  28   2.0000      -0.872109       -23.7313 
  29   2.0000      -0.847633       -23.0653 
  30   2.0000      -0.846250       -23.0276 
  31   2.0000      -0.819650       -22.3038 
  32   2.0000      -0.781807       -21.2741 
  33   2.0000      -0.765817       -20.8390 
  34   2.0000      -0.714480       -19.4420 
  35   2.0000      -0.695584       -18.9278 
  36   2.0000      -0.689253       -18.7555 
  37   2.0000      -0.655854       -17.8467 
  38   2.0000      -0.642656       -17.4876 
  39   2.0000      -0.619529       -16.8583 
  40   2.0000      -0.590909       -16.0795 
  41   2.0000      -0.574039       -15.6204 
  42   2.0000      -0.569063       -15.4850 
  43   2.0000      -0.548038       -14.9129 
  44   2.0000      -0.529762       -14.4156 
  45   2.0000      -0.521165       -14.1816 
  46   2.0000      -0.517712       -14.0877 
  47   2.0000      -0.516053       -14.0425 
  48   2.0000      -0.502044       -13.6613 
  49   2.0000      -0.497617       -13.5409 
  50   2.0000      -0.485979       -13.2242 
  51   2.0000      -0.476869       -12.9763 
  52   2.0000      -0.475294       -12.9334 
  53   2.0000      -0.473946       -12.8967 
  54   2.0000      -0.456844       -12.4314 
  55   2.0000      -0.452490       -12.3129 
  56   2.0000      -0.441574       -12.0158 
  57   2.0000      -0.438138       -11.9224 
  58   2.0000      -0.429378       -11.6840 
  59   2.0000      -0.424845       -11.5606 
  60   2.0000      -0.423038       -11.5114 
  61   2.0000      -0.418073       -11.3763 
  62   2.0000      -0.400512       -10.8985 
  63   2.0000      -0.342145        -9.3102 
  64   2.0000      -0.328548        -8.9402 
  65   2.0000      -0.324464        -8.8291 
  66   2.0000      -0.297671        -8.1000 
  67   0.0000       0.024369         0.6631 
  68   0.0000       0.059183         1.6104 
  69   0.0000       0.099095         2.6965 
  70   0.0000       0.115253         3.1362 
  71   0.0000       0.133300         3.6273 
  72   0.0000       0.145601         3.9620 
  73   0.0000       0.148747         4.0476 
  74   0.0000       0.153448         4.1755 
  75   0.0000       0.162551         4.4232 
  76   0.0000       0.167639         4.5617 
  77   0.0000       0.170934         4.6514 
  78   0.0000       0.189722         5.1626 
  79   0.0000       0.193091         5.2543 
  80   0.0000       0.199364         5.4250 
  81   0.0000       0.206595         5.6217 
  82   0.0000       0.211130         5.7452 
  83   0.0000       0.213330         5.8050 
  84   0.0000       0.216177         5.8825 
  85   0.0000       0.232937         6.3385 
  86   0.0000       0.236808         6.4439 
  87   0.0000       0.238782         6.4976 
  88   0.0000       0.242127         6.5886 
  89   0.0000       0.247951         6.7471 
  90   0.0000       0.255407         6.9500 
  91   0.0000       0.256575         6.9818 
  92   0.0000       0.273062         7.4304 
  93   0.0000       0.300396         8.1742 
  94   0.0000       0.309911         8.4331 
  95   0.0000       0.315898         8.5960 
  96   0.0000       0.327987         8.9250 
  97   0.0000       0.337236         9.1767 
  98   0.0000       0.341341         9.2884 
  99   0.0000       0.368271        10.0212 
 100   0.0000       0.369280        10.0486 
 101   0.0000       0.394705        10.7405 
 102   0.0000       0.412609        11.2277 
 103   0.0000       0.417859        11.3705 
 104   0.0000       0.430981        11.7276 
 105   0.0000       0.447923        12.1886 
 106   0.0000       0.455636        12.3985 
 107   0.0000       0.484071        13.1722 
 108   0.0000       0.487573        13.2675 
 109   0.0000       0.501656        13.6507 
 110   0.0000       0.504223        13.7206 
 111   0.0000       0.512651        13.9499 
 112   0.0000       0.519104        14.1255 
 113   0.0000       0.524654        14.2766 
 114   0.0000       0.533550        14.5186 
 115   0.0000       0.537413        14.6238 
 116   0.0000       0.541057        14.7229 
 117   0.0000       0.553810        15.0699 
 118   0.0000       0.560717        15.2579 
 119   0.0000       0.570829        15.5330 
 120   0.0000       0.577768        15.7219 
 121   0.0000       0.588225        16.0064 
 122   0.0000       0.602654        16.3990 
 123   0.0000       0.604245        16.4423 
 124   0.0000       0.616212        16.7680 
 125   0.0000       0.619526        16.8581 
 126   0.0000       0.626044        17.0355 
 127   0.0000       0.633202        17.2303 
 128   0.0000       0.650810        17.7094 
 129   0.0000       0.656893        17.8750 
 130   0.0000       0.664710        18.0877 
 131   0.0000       0.681197        18.5363 
 132   0.0000       0.684179        18.6175 
 133   0.0000       0.687010        18.6945 
 134   0.0000       0.693286        18.8653 
 135   0.0000       0.711590        19.3634 
 136   0.0000       0.717914        19.5354 
 137   0.0000       0.720802        19.6140 
 138   0.0000       0.725267        19.7355 
 139   0.0000       0.736850        20.0507 
 140   0.0000       0.741588        20.1796 
 141   0.0000       0.746625        20.3167 
 142   0.0000       0.749247        20.3880 
 143   0.0000       0.756189        20.5769 
 144   0.0000       0.760972        20.7071 
 145   0.0000       0.763164        20.7667 
 146   0.0000       0.767495        20.8846 
 147   0.0000       0.771006        20.9801 
 148   0.0000       0.774535        21.0762 
 149   0.0000       0.777413        21.1545 
 150   0.0000       0.781764        21.2729 
 151   0.0000       0.788686        21.4612 
 152   0.0000       0.792730        21.5713 
 153   0.0000       0.797508        21.7013 
 154   0.0000       0.798868        21.7383 
 155   0.0000       0.807049        21.9609 
 156   0.0000       0.809643        22.0315 
 157   0.0000       0.810958        22.0673 
 158   0.0000       0.815720        22.1969 
 159   0.0000       0.818179        22.2638 
 160   0.0000       0.826728        22.4964 
 161   0.0000       0.828397        22.5418 
 162   0.0000       0.838120        22.8064 
 163   0.0000       0.848372        23.0854 
 164   0.0000       0.851717        23.1764 
 165   0.0000       0.856870        23.3166 
 166   0.0000       0.861170        23.4336 
 167   0.0000       0.868376        23.6297 
 168   0.0000       0.876520        23.8513 
 169   0.0000       0.885041        24.0832 
 170   0.0000       0.898546        24.4507 
 171   0.0000       0.908401        24.7188 
 172   0.0000       0.917345        24.9622 
 173   0.0000       0.922646        25.1065 
 174   0.0000       0.950887        25.8750 
 175   0.0000       0.968853        26.3638 
 176   0.0000       0.989775        26.9332 
 177   0.0000       0.997657        27.1476 
 178   0.0000       1.000704        27.2305 
 179   0.0000       1.024981        27.8912 
 180   0.0000       1.051263        28.6063 
 181   0.0000       1.054238        28.6873 
 182   0.0000       1.078890        29.3581 
 183   0.0000       1.094874        29.7930 
 184   0.0000       1.107200        30.1284 
 185   0.0000       1.123375        30.5686 
 186   0.0000       1.131829        30.7986 
 187   0.0000       1.159563        31.5533 
 188   0.0000       1.165591        31.7173 
 189   0.0000       1.184814        32.2404 
 190   0.0000       1.198860        32.6226 
 191   0.0000       1.221749        33.2455 
 192   0.0000       1.234935        33.6043 
 193   0.0000       1.266557        34.4648 
 194   0.0000       1.268389        34.5146 
 195   0.0000       1.277079        34.7511 
 196   0.0000       1.302172        35.4339 
 197   0.0000       1.322553        35.9885 
 198   0.0000       1.336506        36.3682 
 199   0.0000       1.364157        37.1206 
 200   0.0000       1.397048        38.0156 
 201   0.0000       1.401412        38.1344 
 202   0.0000       1.421505        38.6811 
 203   0.0000       1.441503        39.2253 
 204   0.0000       1.452420        39.5224 
 205   0.0000       1.458143        39.6781 
 206   0.0000       1.476441        40.1760 
 207   0.0000       1.490862        40.5684 
 208   0.0000       1.500048        40.8184 
 209   0.0000       1.568673        42.6858 
 210   0.0000       1.569437        42.7066 
 211   0.0000       1.596221        43.4354 
 212   0.0000       1.610662        43.8284 
 213   0.0000       1.638608        44.5888 
 214   0.0000       1.644907        44.7602 
 215   0.0000       1.652915        44.9781 
 216   0.0000       1.655910        45.0596 
 217   0.0000       1.713619        46.6299 
 218   0.0000       1.747446        47.5504 
 219   0.0000       1.768057        48.1113 
 220   0.0000       1.784971        48.5715 
 221   0.0000       1.804707        49.1086 
 222   0.0000       1.815641        49.4061 
 223   0.0000       1.819154        49.5017 
 224   0.0000       1.823196        49.6117 
 225   0.0000       1.829341        49.7789 
 226   0.0000       1.833131        49.8820 
 227   0.0000       1.850480        50.3541 
 228   0.0000       1.855143        50.4810 
 229   0.0000       1.856705        50.5235 
 230   0.0000       1.861114        50.6435 
 231   0.0000       1.880280        51.1650 
 232   0.0000       1.882825        51.2343 
 233   0.0000       1.897444        51.6321 
 234   0.0000       1.900269        51.7090 
 235   0.0000       1.903861        51.8067 
 236   0.0000       1.909902        51.9711 
 237   0.0000       1.914161        52.0870 
 238   0.0000       1.916604        52.1535 
 239   0.0000       1.934368        52.6368 
 240   0.0000       1.940782        52.8114 
 241   0.0000       1.942869        52.8682 
 242   0.0000       1.957124        53.2560 
 243   0.0000       1.960559        53.3495 
 244   0.0000       1.975346        53.7519 
 245   0.0000       1.989974        54.1500 
 246   0.0000       1.997462        54.3537 
 247   0.0000       2.011729        54.7419 
 248   0.0000       2.015060        54.8326 
 249   0.0000       2.034492        55.3613 
 250   0.0000       2.038097        55.4595 
 251   0.0000       2.040981        55.5379 
 252   0.0000       2.059696        56.0472 
 253   0.0000       2.073621        56.4261 
 254   0.0000       2.088586        56.8333 
 255   0.0000       2.090390        56.8824 
 256   0.0000       2.110958        57.4421 
 257   0.0000       2.129258        57.9401 
 258   0.0000       2.132920        58.0397 
 259   0.0000       2.149402        58.4882 
 260   0.0000       2.170025        59.0494 
 261   0.0000       2.172803        59.1250 
 262   0.0000       2.196415        59.7675 
 263   0.0000       2.202476        59.9324 
 264   0.0000       2.214628        60.2631 
 265   0.0000       2.232139        60.7396 
 266   0.0000       2.257260        61.4232 
 267   0.0000       2.264477        61.6195 
 268   0.0000       2.276091        61.9356 
 269   0.0000       2.291691        62.3601 
 270   0.0000       2.337349        63.6025 
 271   0.0000       2.376326        64.6631 
 272   0.0000       2.393374        65.1270 
 273   0.0000       2.403008        65.3892 
 274   0.0000       2.412504        65.6476 
 275   0.0000       2.426775        66.0359 
 276   0.0000       2.430774        66.1447 
 277   0.0000       2.438337        66.3505 
 278   0.0000       2.472269        67.2739 
 279   0.0000       2.479496        67.4705 
 280   0.0000       2.490580        67.7721 
 281   0.0000       2.511330        68.3368 
 282   0.0000       2.514615        68.4261 
 283   0.0000       2.516748        68.4842 
 284   0.0000       2.530753        68.8653 
 285   0.0000       2.554923        69.5230 
 286   0.0000       2.571850        69.9836 
 287   0.0000       2.585548        70.3564 
 288   0.0000       2.587922        70.4209 
 289   0.0000       2.619738        71.2867 
 290   0.0000       2.630446        71.5781 
 291   0.0000       2.645979        72.0007 
 292   0.0000       2.666620        72.5624 
 293   0.0000       2.688227        73.1504 
 294   0.0000       2.715315        73.8875 
 295   0.0000       2.725020        74.1516 
 296   0.0000       2.729583        74.2757 
 297   0.0000       2.753814        74.9351 
 298   0.0000       2.789169        75.8972 
 299   0.0000       2.812817        76.5407 
 300   0.0000       2.847490        77.4841 
 301   0.0000       2.861967        77.8781 
 302   0.0000       2.888663        78.6045 
 303   0.0000       2.905644        79.0666 
 304   0.0000       2.947524        80.2062 
 305   0.0000       2.955424        80.4212 
 306   0.0000       2.985805        81.2479 
 307   0.0000       3.002355        81.6982 
 308   0.0000       3.019885        82.1753 
 309   0.0000       3.038594        82.6844 
 310   0.0000       3.043598        82.8205 
 311   0.0000       3.045796        82.8803 
 312   0.0000       3.075766        83.6958 
 313   0.0000       3.114520        84.7504 
 314   0.0000       3.154146        85.8287 
 315   0.0000       3.175052        86.3976 
 316   0.0000       3.181103        86.5622 
 317   0.0000       3.185231        86.6745 
 318   0.0000       3.217098        87.5417 
 319   0.0000       3.242533        88.2338 
 320   0.0000       3.365688        91.5850 
 321   0.0000       3.420664        93.0810 

                    ********************************
                    * MULLIKEN POPULATION ANALYSIS *
                    ********************************

-----------------------
MULLIKEN ATOMIC CHARGES
-----------------------
   0 S :    0.099138
   1 C :   -0.113509
   2 C :   -0.120747
   3 C :    0.046839
   4 C :   -0.163878
   5 H :    0.031388
   6 C :    0.094840
   7 H :    0.023600
   8 H :    0.033548
   9 C :   -0.123876
  10 H :    0.042336
  11 H :    0.026216
  12 C :   -0.019862
  13 H :    0.033204
  14 H :    0.029654
  15 H :    0.020679
  16 S :    0.117921
  17 C :   -0.082150
  18 C :   -0.039060
  19 C :   -0.054303
  20 C :   -0.136809
  21 H :    0.019318
  22 C :    0.067928
  23 H :    0.039380
  24 H :   -0.002055
  25 C :   -0.071763
  26 H :    0.031823
  27 H :    0.022833
  28 C :   -0.070228
  29 H :    0.031298
  30 H :    0.033121
  31 H :    0.043739
  32 H :    0.066189
  33 H :    0.043249
Sum of atomic charges:   -0.0000000

--------------------------------
MULLIKEN REDUCED ORBITAL CHARGES
--------------------------------
  0 S s       :     5.858069  s :     5.858069
      pz      :     3.302242  p :     9.942619
      px      :     3.478561
      py      :     3.161816
      dz2     :     0.019278  d :     0.100173
      dxz     :     0.016634
      dyz     :     0.031349
      dx2y2   :     0.017523
      dxy     :     0.015389
  1 C s       :     3.196211  s :     3.196211
      pz      :     0.842697  p :     2.884662
      px      :     1.058000
      py      :     0.983965
      dz2     :     0.008789  d :     0.032637
      dxz     :     0.005609
      dyz     :     0.010314
      dx2y2   :     0.002640
      dxy     :     0.005286
  2 C s       :     3.101414  s :     3.101414
      pz      :     1.025553  p :     2.975625
      px      :     0.983431
      py      :     0.966641
      dz2     :     0.009903  d :     0.043708
      dxz     :     0.008430
      dyz     :     0.012398
      dx2y2   :     0.006162
      dxy     :     0.006814
  3 C s       :     3.192024  s :     3.192024
      pz      :     0.879866  p :     2.728034
      px      :     0.966179
      py      :     0.881990
      dz2     :     0.008818  d :     0.033103
      dxz     :     0.006391
      dyz     :     0.008647
      dx2y2   :     0.004469
      dxy     :     0.004778
  4 C s       :     3.090300  s :     3.090300
      pz      :     0.969527  p :     3.027613
      px      :     1.043340
      py      :     1.014747
      dz2     :     0.009502  d :     0.045965
      dxz     :     0.010789
      dyz     :     0.013686
      dx2y2   :     0.006028
      dxy     :     0.005960
  5 H s       :     0.945161  s :     0.945161
      pz      :     0.006810  p :     0.023451
      px      :     0.005935
      py      :     0.010705
  6 C s       :     2.935139  s :     2.935139
      pz      :     0.951916  p :     2.932737
      px      :     0.992315
      py      :     0.988506
      dz2     :     0.008017  d :     0.037284
      dxz     :     0.008221
      dyz     :     0.007247
      dx2y2   :     0.004260
      dxy     :     0.009538
  7 H s       :     0.954773  s :     0.954773
      pz      :     0.003505  p :     0.021628
      px      :     0.009070
      py      :     0.009053
  8 H s       :     0.941585  s :     0.941585
      pz      :     0.007311  p :     0.024867
      px      :     0.011241
      py      :     0.006314
  9 C s       :     3.082041  s :     3.082041
      pz      :     0.987222  p :     3.004927
      px      :     1.016109
      py      :     1.001596
      dz2     :     0.008105  d :     0.036909
      dxz     :     0.007379
      dyz     :     0.007436
      dx2y2   :     0.002959
      dxy     :     0.011029
 10 H s       :     0.936522  s :     0.936522
      pz      :     0.006205  p :     0.021142
      px      :     0.009020
      py      :     0.005917
 11 H s       :     0.950403  s :     0.950403
      pz      :     0.004383  p :     0.023381
      px      :     0.009958
      py      :     0.009040
 12 C s       :     2.985789  s :     2.985789
      pz      :     0.954681  p :     3.005633
      px      :     1.027137
      py      :     1.023815
      dz2     :     0.005814  d :     0.028439
      dxz     :     0.006618
      dyz     :     0.006684
      dx2y2   :     0.001617
      dxy     :     0.007707
 13 H s       :     0.942979  s :     0.942979
      pz      :     0.006678  p :     0.023818
      px      :     0.006203
      py      :     0.010936
 14 H s       :     0.946802  s :     0.946802
      pz      :     0.008110  p :     0.023544
      px      :     0.008423
      py      :     0.007010
 15 H s       :     0.953706  s :     0.953706
      pz      :     0.005347  p :     0.025615
      px      :     0.010960
      py      :     0.009309
 16 S s       :     5.842772  s :     5.842772
      pz      :     3.478582  p :     9.925505
      px      :     3.330753
      py      :     3.116171
      dz2     :     0.020386  d :     0.113801
      dxz     :     0.019358
      dyz     :     0.016092
      dx2y2   :     0.017732
      dxy     :     0.040233
 17 C s       :     3.137157  s :     3.137157
      pz      :     1.024355  p :     2.909609
      px      :     0.946099
      py      :     0.939155
      dz2     :     0.005724  d :     0.035384
      dxz     :     0.007346
      dyz     :     0.005840
      dx2y2   :     0.007110
      dxy     :     0.009364
 18 C s       :     3.171882  s :     3.171882
      pz      :     0.987138  p :     2.830775
      px      :     0.933627
      py      :     0.910010
      dz2     :     0.006527  d :     0.036403
      dxz     :     0.005494
      dyz     :     0.006072
      dx2y2   :     0.008435
      dxy     :     0.009875
 19 C s       :     3.081888  s :     3.081888
      pz      :     0.995421  p :     2.929448
      px      :     0.975643
      py      :     0.958384
      dz2     :     0.005487  d :     0.042967
      dxz     :     0.007734
      dyz     :     0.008053
      dx2y2   :     0.011806
      dxy     :     0.009887
 20 C s       :     3.062338  s :     3.062338
      pz      :     1.089617  p :     3.030698
      px      :     0.956718
      py      :     0.984363
      dz2     :     0.005515  d :     0.043773
      dxz     :     0.009261
      dyz     :     0.006604
      dx2y2   :     0.008490
      dxy     :     0.013902
 21 H s       :     0.955636  s :     0.955636
      pz      :     0.004762  p :     0.025047
      px      :     0.009515
      py      :     0.010770
 22 C s       :     2.961441  s :     2.961441
      pz      :     0.985465  p :     2.937015
      px      :     0.935985
      py      :     1.015565
      dz2     :     0.004144  d :     0.033616
      dxz     :     0.007710
      dyz     :     0.009114
      dx2y2   :     0.007543
      dxy     :     0.005105
 23 H s       :     0.939034  s :     0.939034
      pz      :     0.009160  p :     0.021586
      px      :     0.003190
      py      :     0.009236
 24 H s       :     0.977052  s :     0.977052
      pz      :     0.007582  p :     0.025003
      px      :     0.004970
      py      :     0.012451
 25 C s       :     3.052505  s :     3.052505
      pz      :     1.017749  p :     2.984136
      px      :     0.967712
      py      :     0.998675
      dz2     :     0.007832  d :     0.035122
      dxz     :     0.005571
      dyz     :     0.005645
      dx2y2   :     0.006378
      dxy     :     0.009696
 26 H s       :     0.945705  s :     0.945705
      pz      :     0.012349  p :     0.022472
      px      :     0.003765
      py      :     0.006359
 27 H s       :     0.953965  s :     0.953965
      pz      :     0.005691  p :     0.023202
      px      :     0.006171
      py      :     0.011340
 28 C s       :     3.039592  s :     3.039592
      pz      :     1.007061  p :     3.002627
      px      :     1.002205
      py      :     0.993361
      dz2     :     0.006202  d :     0.028010
      dxz     :     0.006599
      dyz     :     0.003750
      dx2y2   :     0.004361
      dxy     :     0.007099
 29 H s       :     0.946561  s :     0.946561
      pz      :     0.011822  p :     0.022141
      px      :     0.005085
      py      :     0.005234
 30 H s       :     0.942344  s :     0.942344
      pz      :     0.005725  p :     0.024535
      px      :     0.007209
      py      :     0.011602
 31 H s       :     0.934023  s :     0.934023
      pz      :     0.007334  p :     0.022238
      px      :     0.010103
      py      :     0.004801
 32 H s       :     0.911021  s :     0.911021
      pz      :     0.002704  p :     0.022790
      px      :     0.010016
      py      :     0.010071
 33 H s       :     0.931255  s :     0.931255
      pz      :     0.009471  p :     0.025496
      px      :     0.004276
      py      :     0.011749


                     *******************************
                     * LOEWDIN POPULATION ANALYSIS *
                     *******************************

----------------------
LOEWDIN ATOMIC CHARGES
----------------------
   0 S :    0.387371
   1 C :   -0.198996
   2 C :   -0.050715
   3 C :   -0.055803
   4 C :   -0.189005
   5 H :    0.037580
   6 C :   -0.030752
   7 H :    0.033325
   8 H :    0.031358
   9 C :   -0.042143
  10 H :    0.032009
  11 H :    0.018858
  12 C :   -0.064537
  13 H :    0.027961
  14 H :    0.026674
  15 H :    0.019301
  16 S :    0.423020
  17 C :   -0.183414
  18 C :   -0.069147
  19 C :   -0.058300
  20 C :   -0.218976
  21 H :    0.031793
  22 C :   -0.036678
  23 H :    0.037607
  24 H :    0.018390
  25 C :   -0.048565
  26 H :    0.031538
  27 H :    0.018240
  28 C :   -0.067351
  29 H :    0.024973
  30 H :    0.021038
  31 H :    0.032595
  32 H :    0.032336
  33 H :    0.028413

-------------------------------
LOEWDIN REDUCED ORBITAL CHARGES
-------------------------------
  0 S s       :     5.533224  s :     5.533224
      pz      :     3.329430  p :     9.956071
      px      :     3.460158
      py      :     3.166483
      dz2     :     0.021970  d :     0.123333
      dxz     :     0.019297
      dyz     :     0.039784
      dx2y2   :     0.021903
      dxy     :     0.020379
  1 C s       :     2.968458  s :     2.968458
      pz      :     0.986343  p :     3.155605
      px      :     1.096164
      py      :     1.073099
      dz2     :     0.021683  d :     0.074933
      dxz     :     0.011853
      dyz     :     0.026006
      dx2y2   :     0.005013
      dxy     :     0.010378
  2 C s       :     2.867856  s :     2.867856
      pz      :     1.062536  p :     3.075676
      px      :     0.984385
      py      :     1.028755
      dz2     :     0.025333  d :     0.107182
      dxz     :     0.018376
      dyz     :     0.034364
      dx2y2   :     0.013495
      dxy     :     0.015613
  3 C s       :     2.873691  s :     2.873691
      pz      :     1.053355  p :     3.094778
      px      :     1.010958
      py      :     1.030465
      dz2     :     0.027033  d :     0.087334
      dxz     :     0.015222
      dyz     :     0.023883
      dx2y2   :     0.009538
      dxy     :     0.011658
  4 C s       :     2.914382  s :     2.914382
      pz      :     1.082710  p :     3.166369
      px      :     1.048467
      py      :     1.035192
      dz2     :     0.025619  d :     0.108253
      dxz     :     0.023702
      dyz     :     0.033348
      dx2y2   :     0.012838
      dxy     :     0.012746
  5 H s       :     0.892753  s :     0.892753
      pz      :     0.020439  p :     0.069667
      px      :     0.017855
      py      :     0.031372
  6 C s       :     2.817303  s :     2.817303
      pz      :     1.024309  p :     3.118884
      px      :     1.056264
      py      :     1.038311
      dz2     :     0.020859  d :     0.094565
      dxz     :     0.020665
      dyz     :     0.018873
      dx2y2   :     0.009154
      dxy     :     0.025015
  7 H s       :     0.906198  s :     0.906198
      pz      :     0.010671  p :     0.060477
      px      :     0.023372
      py      :     0.026434
  8 H s       :     0.893992  s :     0.893992
      pz      :     0.022906  p :     0.074650
      px      :     0.032434
      py      :     0.019309
  9 C s       :     2.835204  s :     2.835204
      pz      :     1.022928  p :     3.117684
      px      :     1.056241
      py      :     1.038515
      dz2     :     0.019103  d :     0.089256
      dxz     :     0.018171
      dyz     :     0.018428
      dx2y2   :     0.006705
      dxy     :     0.026848
 10 H s       :     0.906152  s :     0.906152
      pz      :     0.019060  p :     0.061839
      px      :     0.024927
      py      :     0.017852
 11 H s       :     0.911507  s :     0.911507
      pz      :     0.014594  p :     0.069635
      px      :     0.028230
      py      :     0.026812
 12 C s       :     2.825559  s :     2.825559
      pz      :     1.018642  p :     3.166567
      px      :     1.072682
      py      :     1.075243
      dz2     :     0.014785  d :     0.072410
      dxz     :     0.017341
      dyz     :     0.016839
      dx2y2   :     0.004324
      dxy     :     0.019121
 13 H s       :     0.905206  s :     0.905206
      pz      :     0.019878  p :     0.066833
      px      :     0.017003
      py      :     0.029952
 14 H s       :     0.908469  s :     0.908469
      pz      :     0.023653  p :     0.064857
      px      :     0.023084
      py      :     0.018120
 15 H s       :     0.907717  s :     0.907717
      pz      :     0.016003  p :     0.072982
      px      :     0.030958
      py      :     0.026021
 16 S s       :     5.496691  s :     5.496691
      pz      :     3.456916  p :     9.938760
      px      :     3.367600
      py      :     3.114244
      dz2     :     0.025267  d :     0.141529
      dxz     :     0.022411
      dyz     :     0.021203
      dx2y2   :     0.020496
      dxy     :     0.052151
 17 C s       :     2.924873  s :     2.924873
      pz      :     1.083593  p :     3.176110
      px      :     1.054744
      py      :     1.037774
      dz2     :     0.011190  d :     0.082431
      dxz     :     0.018938
      dyz     :     0.013113
      dx2y2   :     0.017771
      dxy     :     0.021419
 18 C s       :     2.855884  s :     2.855884
      pz      :     1.022183  p :     3.117435
      px      :     1.058981
      py      :     1.036270
      dz2     :     0.014591  d :     0.095827
      dxz     :     0.015451
      dyz     :     0.015354
      dx2y2   :     0.024439
      dxy     :     0.025993
 19 C s       :     2.864505  s :     2.864505
      pz      :     1.007601  p :     3.086526
      px      :     1.034856
      py      :     1.044069
      dz2     :     0.012058  d :     0.107269
      dxz     :     0.018219
      dyz     :     0.018744
      dx2y2   :     0.032053
      dxy     :     0.026196
 20 C s       :     2.908824  s :     2.908824
      pz      :     1.095871  p :     3.204556
      px      :     1.056084
      py      :     1.052601
      dz2     :     0.012458  d :     0.105595
      dxz     :     0.021775
      dyz     :     0.014847
      dx2y2   :     0.021011
      dxy     :     0.035505
 21 H s       :     0.894574  s :     0.894574
      pz      :     0.015164  p :     0.073633
      px      :     0.027328
      py      :     0.031142
 22 C s       :     2.836949  s :     2.836949
      pz      :     1.030462  p :     3.116572
      px      :     1.012333
      py      :     1.073776
      dz2     :     0.008515  d :     0.083156
      dxz     :     0.020427
      dyz     :     0.023560
      dx2y2   :     0.019258
      dxy     :     0.011396
 23 H s       :     0.902269  s :     0.902269
      pz      :     0.026447  p :     0.060124
      px      :     0.010626
      py      :     0.023051
 24 H s       :     0.906738  s :     0.906738
      pz      :     0.023034  p :     0.074872
      px      :     0.017044
      py      :     0.034794
 25 C s       :     2.840825  s :     2.840825
      pz      :     1.052115  p :     3.123282
      px      :     1.020577
      py      :     1.050590
      dz2     :     0.019006  d :     0.084458
      dxz     :     0.013454
      dyz     :     0.013487
      dx2y2   :     0.015057
      dxy     :     0.023453
 26 H s       :     0.903757  s :     0.903757
      pz      :     0.035731  p :     0.064705
      px      :     0.012069
      py      :     0.016906
 27 H s       :     0.911435  s :     0.911435
      pz      :     0.016908  p :     0.070325
      px      :     0.020707
      py      :     0.032710
 28 C s       :     2.844347  s :     2.844347
      pz      :     1.050851  p :     3.152681
      px      :     1.054931
      py      :     1.046899
      dz2     :     0.014834  d :     0.070323
      dxz     :     0.016881
      dyz     :     0.009849
      dx2y2   :     0.010038
      dxy     :     0.018721
 29 H s       :     0.914997  s :     0.914997
      pz      :     0.032827  p :     0.060030
      px      :     0.013406
      py      :     0.013797
 30 H s       :     0.908272  s :     0.908272
      pz      :     0.015639  p :     0.070691
      px      :     0.021029
      py      :     0.034022
 31 H s       :     0.905042  s :     0.905042
      pz      :     0.020744  p :     0.062363
      px      :     0.028330
      py      :     0.013289
 32 H s       :     0.897867  s :     0.897867
      pz      :     0.009432  p :     0.069797
      px      :     0.030456
      py      :     0.029909
 33 H s       :     0.892593  s :     0.892593
      pz      :     0.027628  p :     0.078994
      px      :     0.014872
      py      :     0.036493


                      *****************************
                      * MAYER POPULATION ANALYSIS *
                      *****************************

  NA   - Mulliken gross atomic population
  ZA   - Total nuclear charge
  QA   - Mulliken gross atomic charge
  VA   - Mayer's total valence
  BVA  - Mayer's bonded valence
  FA   - Mayer's free valence

  ATOM       NA         ZA         QA         VA         BVA        FA
  0 S     15.9009    16.0000     0.0991     2.4762     2.4762    -0.0000
  1 C      6.1135     6.0000    -0.1135     3.8294     3.8294     0.0000
  2 C      6.1207     6.0000    -0.1207     3.9977     3.9977    -0.0000
  3 C      5.9532     6.0000     0.0468     3.8787     3.8787     0.0000
  4 C      6.1639     6.0000    -0.1639     3.9114     3.9114    -0.0000
  5 H      0.9686     1.0000     0.0314     1.0031     1.0031     0.0000
  6 C      5.9052     6.0000     0.0948     3.9448     3.9448     0.0000
  7 H      0.9764     1.0000     0.0236     0.9920     0.9920     0.0000
  8 H      0.9665     1.0000     0.0335     0.9867     0.9867     0.0000
  9 C      6.1239     6.0000    -0.1239     4.0958     4.0958    -0.0000
 10 H      0.9577     1.0000     0.0423     0.9774     0.9774    -0.0000
 11 H      0.9738     1.0000     0.0262     0.9770     0.9770    -0.0000
 12 C      6.0199     6.0000    -0.0199     3.9988     3.9988    -0.0000
 13 H      0.9668     1.0000     0.0332     0.9873     0.9873    -0.0000
 14 H      0.9703     1.0000     0.0297     0.9898     0.9898    -0.0000
 15 H      0.9793     1.0000     0.0207     0.9922     0.9922    -0.0000
 16 S     15.8821    16.0000     0.1179     2.4947     2.4947     0.0000
 17 C      6.0822     6.0000    -0.0822     3.8546     3.8546    -0.0000
 18 C      6.0391     6.0000    -0.0391     3.9491     3.9491    -0.0000
 19 C      6.0543     6.0000    -0.0543     4.0365     4.0365    -0.0000
 20 C      6.1368     6.0000    -0.1368     3.8915     3.8915    -0.0000
 21 H      0.9807     1.0000     0.0193     0.9963     0.9963    -0.0000
 22 C      5.9321     6.0000     0.0679     3.9453     3.9453     0.0000
 23 H      0.9606     1.0000     0.0394     0.9785     0.9785     0.0000
 24 H      1.0021     1.0000    -0.0021     1.0073     1.0073     0.0000
 25 C      6.0718     6.0000    -0.0718     4.0643     4.0643    -0.0000
 26 H      0.9682     1.0000     0.0318     0.9790     0.9790    -0.0000
 27 H      0.9772     1.0000     0.0228     0.9802     0.9802    -0.0000
 28 C      6.0702     6.0000    -0.0702     4.0143     4.0143     0.0000
 29 H      0.9687     1.0000     0.0313     0.9822     0.9822    -0.0000
 30 H      0.9669     1.0000     0.0331     0.9888     0.9888    -0.0000
 31 H      0.9563     1.0000     0.0437     0.9853     0.9853     0.0000
 32 H      0.9338     1.0000     0.0662     0.9971     0.9971     0.0000
 33 H      0.9568     1.0000     0.0432     1.0016     1.0016     0.0000

  Mayer bond orders larger than 0.100000
B(  0-S ,  1-C ) :   1.1197 B(  0-S ,  4-C ) :   1.1627 B(  1-C ,  2-C ) :   1.6159 
B(  1-C , 32-H ) :   0.9595 B(  2-C ,  3-C ) :   1.2134 B(  2-C ,  6-C ) :   1.0332 
B(  3-C ,  4-C ) :   1.5640 B(  3-C ,  5-H ) :   0.9925 B(  4-C , 20-C ) :   1.0259 
B(  6-C ,  7-H ) :   0.9412 B(  6-C ,  8-H ) :   0.9284 B(  6-C ,  9-C ) :   1.0592 
B(  9-C , 10-H ) :   0.9600 B(  9-C , 11-H ) :   0.9502 B(  9-C , 12-C ) :   1.0871 
B( 12-C , 13-H ) :   0.9735 B( 12-C , 14-H ) :   0.9740 B( 12-C , 15-H ) :   0.9746 
B( 16-S , 17-C ) :   1.1609 B( 16-S , 20-C ) :   1.1541 B( 17-C , 18-C ) :   1.6002 
B( 17-C , 20-C ) :   0.1040 B( 17-C , 33-H ) :   0.9668 B( 18-C , 19-C ) :   1.2648 
B( 18-C , 21-H ) :   0.9971 B( 19-C , 20-C ) :   1.5691 B( 19-C , 22-C ) :   1.0494 
B( 22-C , 23-H ) :   0.9403 B( 22-C , 24-H ) :   0.9349 B( 22-C , 25-C ) :   1.0352 
B( 25-C , 26-H ) :   0.9597 B( 25-C , 27-H ) :   0.9563 B( 25-C , 28-C ) :   1.0896 
B( 28-C , 29-H ) :   0.9761 B( 28-C , 30-H ) :   0.9736 B( 28-C , 31-H ) :   0.9754 


-------
TIMINGS
-------

Total SCF time: 0 days 0 hours 0 min 30 sec 

Total time                  ....      30.883 sec
Sum of individual times     ....      29.605 sec  ( 95.9%)

Fock matrix formation       ....      27.552 sec  ( 89.2%)
  XC integration            ....       2.125 sec  (  7.7% of F)
    Basis function eval.    ....       0.221 sec  ( 10.4% of XC)
    Density eval.           ....       0.189 sec  (  8.9% of XC)
    XC-Functional eval.     ....       0.196 sec  (  9.2% of XC)
    XC-Potential eval.      ....       0.195 sec  (  9.2% of XC)
Diagonalization             ....       0.158 sec  (  0.5%)
Density matrix formation    ....       0.023 sec  (  0.1%)
Population analysis         ....       0.048 sec  (  0.2%)
Initial guess               ....       0.209 sec  (  0.7%)
Orbital Transformation      ....       0.000 sec  (  0.0%)
Orbital Orthonormalization  ....       0.000 sec  (  0.0%)
DIIS solution               ....       0.162 sec  (  0.5%)
SOSCF solution              ....       0.148 sec  (  0.5%)
Grid generation             ....       1.305 sec  (  4.2%)


-------------------------------------------------------------------------------
                          DFT DISPERSION CORRECTION                            
                                                                               
                              DFTD3 V3.1  Rev 1                                
                              USING zero damping                               
-------------------------------------------------------------------------------
The omegaB97X-D3 functional is recognized. Fit by Chai et al.
Active option DFTDOPT                   ...         3   

molecular C6(AA) [au] = 14181.348589 


            DFT-D V3
 parameters
 s6 scaling factor         :     1.0000 
 rs6 scaling factor        :     1.2810 
 s8 scaling factor         :     1.0000 
 rs8 scaling factor        :     1.0940 
 Damping factor alpha6     :    14.0000 
 Damping factor alpha8     :    16.0000 
 ad hoc parameters k1-k3   :    16.0000     1.3333    -4.0000 

 Edisp/kcal,au: -8.455562397893  -0.013474794956 
 E6   /kcal   :  -3.832602381 
 E8   /kcal   :  -4.622960017 
 % E8         :  54.673595908 

-------------------------   ----------------
Dispersion correction           -0.013474795
-------------------------   ----------------


-------------------------   --------------------
FINAL SINGLE POINT ENERGY     -1339.854510815605
-------------------------   --------------------


                            ***************************************
                            *     ORCA property calculations      *
                            ***************************************

                                    ---------------------
                                    Active property flags
                                    ---------------------
   (+) Dipole Moment


------------------------------------------------------------------------------
                       ORCA ELECTRIC PROPERTIES CALCULATION
------------------------------------------------------------------------------

Dipole Moment Calculation                       ... on
Quadrupole Moment Calculation                   ... off
Polarizability Calculation                      ... off
GBWName                                         ... config_8718.gbw
Electron density file                           ... config_8718.scfp
The origin for moment calculation is the CENTER OF MASS  = (-185.447975, 75.883638 231.877440)

-------------
DIPOLE MOMENT
-------------
                                X             Y             Z
Electronic contribution:     10.73524       3.27651     -22.42634
Nuclear contribution   :    -10.78841      -3.04751      23.09178
                        -----------------------------------------
Total Dipole Moment    :     -0.05317       0.22900       0.66543
                        -----------------------------------------
Magnitude (a.u.)       :      0.70574
Magnitude (Debye)      :      1.79385



--------------------
Rotational spectrum 
--------------------
 
Rotational constants in cm-1:     0.017036     0.007809     0.006829 
Rotational constants in MHz :   510.739173   234.115914   204.717465 

 Dipole components along the rotational axes: 
x,y,z [a.u.] :     0.267528     0.364934    -0.541590 
x,y,z [Debye]:     0.680001     0.927589    -1.376612 

 

Timings for individual modules:

Sum of individual times         ...       32.127 sec (=   0.535 min)
GTO integral calculation        ...        0.863 sec (=   0.014 min)   2.7 %
SCF iterations                  ...       31.264 sec (=   0.521 min)  97.3 %
                             ****ORCA TERMINATED NORMALLY****
TOTAL RUN TIME: 0 days 0 hours 0 minutes 32 seconds 789 msec
