
                                 *****************
                                 * O   R   C   A *
                                 *****************

           --- An Ab Initio, DFT and Semiempirical electronic structure package ---

                  #######################################################
                  #                        -***-                        #
                  #          Department of theory and spectroscopy      #
                  #               Directorship: Frank Neese             #
                  #        Max Planck Institute fuer Kohlenforschung    #
                  #                Kaiser Wilhelm Platz 1               #
                  #                 D-45470 Muelheim/Ruhr               #
                  #                      Germany                        #
                  #                                                     #
                  #                  All rights reserved                #
                  #                        -***-                        #
                  #######################################################


                         Program Version 4.2.1 -  RELEASE  -


 With contributions from (in alphabetic order):
   Daniel Aravena         : Magnetic Suceptibility
   Michael Atanasov       : Ab Initio Ligand Field Theory (pilot matlab implementation)
   Alexander A. Auer      : GIAO ZORA, VPT2
   Ute Becker             : Parallelization
   Giovanni Bistoni       : ED, misc. LED, open-shell LED, HFLD
   Martin Brehm           : Molecular dynamics
   Dmytro Bykov           : SCF Hessian
   Vijay G. Chilkuri      : MRCI spin determinant printing, contributions to CSF-ICE
   Dipayan Datta          : RHF DLPNO-CCSD density
   Achintya Kumar Dutta   : EOM-CC, STEOM-CC
   Dmitry Ganyushin       : Spin-Orbit,Spin-Spin,Magnetic field MRCI
   Miquel Garcia          : C-PCM Hessian, Gaussian charge scheme
   Yang Guo               : DLPNO-NEVPT2, CIM, IAO-localization
   Andreas Hansen         : Spin unrestricted coupled pair/coupled cluster methods
   Benjamin Helmich-Paris : CASSCF linear response (MC-RPA)
   Lee Huntington         : MR-EOM, pCC
   Robert Izsak           : Overlap fitted RIJCOSX, COSX-SCS-MP3, EOM
   Christian Kollmar      : KDIIS, OOCD, Brueckner-CCSD(T), CCSD density
   Simone Kossmann        : Meta GGA functionals, TD-DFT gradient, OOMP2, MP2 Hessian
   Martin Krupicka        : AUTO-CI
   Lucas Lang             : DCDCAS
   Dagmar Lenk            : GEPOL surface, SMD
   Dimitrios Liakos       : Extrapolation schemes; Compound Job, initial MDCI parallelization
   Dimitrios Manganas     : Further ROCIS development; embedding schemes
   Dimitrios Pantazis     : SARC Basis sets
   Taras Petrenko         : DFT Hessian,TD-DFT gradient, ASA, ECA, R-Raman, ABS, FL, XAS/XES, NRVS
   Peter Pinski           : DLPNO-MP2, DLPNO-MP2 Gradient
   Christoph Reimann      : Effective Core Potentials
   Marius Retegan         : Local ZFS, SOC
   Christoph Riplinger    : Optimizer, TS searches, QM/MM, DLPNO-CCSD(T), (RO)-DLPNO pert. Triples
   Tobias Risthaus        : Range-separated hybrids, TD-DFT gradient, RPA, STAB
   Michael Roemelt        : Original ROCIS implementation
   Masaaki Saitow         : Open-shell DLPNO-CCSD energy and density
   Barbara Sandhoefer     : DKH picture change effects
   Avijit Sen             : IP-ROCIS
   Kantharuban Sivalingam : CASSCF convergence, NEVPT2, FIC-MRCI
   Bernardo de Souza      : ESD, SOC TD-DFT
   Georgi Stoychev        : AutoAux, RI-MP2 NMR
   Willem Van den Heuvel  : Paramagnetic NMR
   Boris Wezisla          : Elementary symmetry handling
   Frank Wennmohs         : Technical directorship


 We gratefully acknowledge several colleagues who have allowed us to
 interface, adapt or use parts of their codes:
   Stefan Grimme, W. Hujo, H. Kruse,             : VdW corrections, initial TS optimization,
                  C. Bannwarth                     DFT functionals, gCP, sTDA/sTD-DF
   Ed Valeev, F. Pavosevic, A. Kumar             : LibInt (2-el integral package), F12 methods
   Garnet Chan, S. Sharma, J. Yang, R. Olivares  : DMRG
   Ulf Ekstrom                                   : XCFun DFT Library
   Mihaly Kallay                                 : mrcc  (arbitrary order and MRCC methods)
   Andreas Klamt, Michael Diedenhofen            : otool_cosmo (COSMO solvation model)
   Jiri Pittner, Ondrej Demel                    : Mk-CCSD
   Frank Weinhold                                : gennbo (NPA and NBO analysis)
   Christopher J. Cramer and Donald G. Truhlar   : smd solvation model
   Lars Goerigk                                  : TD-DFT with DH, B97 family of functionals
   V. Asgeirsson, H. Jonsson                     : NEB implementation
   FAccTs GmbH                                   : IRC, NEB, NEB-TS, Multilevel, MM, QM/MM, CI optimization
   S Lehtola, MJT Oliveira, MAL Marques          : LibXC Library


 Your calculation uses the libint2 library for the computation of 2-el integrals
 For citations please refer to: http://libint.valeyev.net

 Your ORCA version has been built with support for libXC version: 4.2.3
 For citations please refer to: https://tddft.org/programs/libxc/

 This ORCA versions uses:
   CBLAS   interface :  Fast vector & matrix operations
   LAPACKE interface :  Fast linear algebra routines
   SCALAPACK package :  Parallel linear algebra routines


Your calculation utilizes the atom-pairwise dispersion correction
with the zero-damping scheme (D30)
Cite in your paper:
S.Grimme, J.Antony, S.Ehrlich and H.Krieg, J.Chem.Phys., 132, (2010), 154104 
   

XCFun DFT library Copyright 2009-2010 Ulf Ekstrom and contributors.
See http://admol.org/xcfun for more information. This is free soft-
ware; see the source code for copying conditions. There is ABSOLUTELY
NO WARRANTY; not even for MERCHANTABILITY or FITNESS FOR A PARTICULAR
PURPOSE. For details see the documentation. Scientific users of this 
library should cite U. Ekstrom, L. Visscher, R. Bast, A. J. Thorvald-
sen and K. Ruud; J.Chem.Theor.Comp. 2010, DOI: 10.1021/ct100117s
XCFun Version 0.99 
----- Orbital basis set information -----
Your calculation utilizes the basis: def2-SVP
   F. Weigend and R. Ahlrichs, Phys. Chem. Chem. Phys. 7, 3297 (2005).

================================================================================
                                        WARNINGS
                       Please study these warnings very carefully!
================================================================================


INFO   : the flag for use of LIBINT has been found!

================================================================================
                                       INPUT FILE
================================================================================
NAME = config_4549.inp
|  1> ! wB97X-D3 SP def2-SVP
|  2> %pal
|  3> nprocs 16
|  4> end
|  5> 
|  6> * xyz 0 1
|  7> S 	 27.9379 	 4.20868 	 74.8476 	 
|  8> C 	 28.9618 	 5.36439 	 75.6904 	 
|  9> C 	 28.6754 	 5.5197 	 77.0645 	 
| 10> C 	 27.5271 	 4.69002 	 77.3412 	 
| 11> C 	 27.036 	 3.91387 	 76.3184 	 
| 12> H 	 27.0411 	 4.66976 	 78.3066 	 
| 13> C 	 29.3894 	 6.32189 	 78.1205 	 
| 14> H 	 28.5963 	 6.91381 	 78.5714 	 
| 15> H 	 30.0681 	 7.09066 	 77.5638 	 
| 16> C 	 30.2267 	 5.63723 	 79.2312 	 
| 17> H 	 29.5559 	 4.93766 	 79.8238 	 
| 18> H 	 31.1485 	 5.14835 	 78.8038 	 
| 19> C 	 30.5853 	 6.81915 	 80.1856 	 
| 20> H 	 31.145 	 7.53273 	 79.5646 	 
| 21> H 	 29.6975 	 7.27958 	 80.648 	 
| 22> H 	 31.1349 	 6.38516 	 80.9848 	 
| 23> S 	 26.3114 	 1.22869 	 76.4449 	 
| 24> C 	 24.649 	 0.828672 	 76.5117 	 
| 25> C 	 23.8297 	 1.91839 	 76.6482 	 
| 26> C 	 24.568 	 3.14585 	 76.7064 	 
| 27> C 	 25.8859 	 2.97253 	 76.3573 	 
| 28> H 	 22.826 	 1.85887 	 76.7882 	 
| 29> C 	 23.7691 	 4.38777 	 76.7562 	 
| 30> H 	 24.0411 	 5.03586 	 77.6016 	 
| 31> H 	 22.7901 	 4.10187 	 76.9998 	 
| 32> C 	 23.7715 	 5.16615 	 75.4962 	 
| 33> H 	 23.5656 	 4.58267 	 74.5891 	 
| 34> H 	 24.7732 	 5.50553 	 75.3857 	 
| 35> C 	 22.8431 	 6.4073 	 75.5195 	 
| 36> H 	 22.8488 	 6.92454 	 74.5854 	 
| 37> H 	 23.1971 	 7.09684 	 76.3478 	 
| 38> H 	 21.8674 	 6.18446 	 75.8496 	 
| 39> H 	 29.8472 	 5.84738 	 75.2815 	 
| 40> H 	 24.2337 	 -0.189552 	 76.3337 	 
| 41> *
| 42> 
| 43>                          ****END OF INPUT****
================================================================================

                       ****************************
                       * Single Point Calculation *
                       ****************************

---------------------------------
CARTESIAN COORDINATES (ANGSTROEM)
---------------------------------
  S     27.937900    4.208680   74.847600
  C     28.961800    5.364390   75.690400
  C     28.675400    5.519700   77.064500
  C     27.527100    4.690020   77.341200
  C     27.036000    3.913870   76.318400
  H     27.041100    4.669760   78.306600
  C     29.389400    6.321890   78.120500
  H     28.596300    6.913810   78.571400
  H     30.068100    7.090660   77.563800
  C     30.226700    5.637230   79.231200
  H     29.555900    4.937660   79.823800
  H     31.148500    5.148350   78.803800
  C     30.585300    6.819150   80.185600
  H     31.145000    7.532730   79.564600
  H     29.697500    7.279580   80.648000
  H     31.134900    6.385160   80.984800
  S     26.311400    1.228690   76.444900
  C     24.649000    0.828672   76.511700
  C     23.829700    1.918390   76.648200
  C     24.568000    3.145850   76.706400
  C     25.885900    2.972530   76.357300
  H     22.826000    1.858870   76.788200
  C     23.769100    4.387770   76.756200
  H     24.041100    5.035860   77.601600
  H     22.790100    4.101870   76.999800
  C     23.771500    5.166150   75.496200
  H     23.565600    4.582670   74.589100
  H     24.773200    5.505530   75.385700
  C     22.843100    6.407300   75.519500
  H     22.848800    6.924540   74.585400
  H     23.197100    7.096840   76.347800
  H     21.867400    6.184460   75.849600
  H     29.847200    5.847380   75.281500
  H     24.233700   -0.189552   76.333700

----------------------------
CARTESIAN COORDINATES (A.U.)
----------------------------
  NO LB      ZA    FRAG     MASS         X           Y           Z
   0 S    16.0000    0    32.060   52.794980    7.953253  141.441466
   1 C     6.0000    0    12.011   54.729870   10.137228  143.034127
   2 C     6.0000    0    12.011   54.188653   10.430721  145.630800
   3 C     6.0000    0    12.011   52.018680    8.862853  146.153687
   4 C     6.0000    0    12.011   51.090636    7.396142  144.220875
   5 H     1.0000    0     1.008   51.100273    8.824568  147.978028
   6 C     6.0000    0    12.011   55.537917   11.946641  147.626350
   7 H     1.0000    0     1.008   54.039175   13.065207  148.478428
   8 H     1.0000    0     1.008   56.820474   13.399406  146.574340
   9 C     6.0000    0    12.011   57.120185   10.652821  149.725269
  10 H     1.0000    0     1.008   55.852557    9.330825  150.845121
  11 H     1.0000    0     1.008   58.862134    9.728972  148.917600
  12 C     6.0000    0    12.011   57.797841   12.886326  151.528824
  13 H     1.0000    0     1.008   58.855520   14.234797  150.355304
  14 H     1.0000    0     1.008   56.120142   13.756413  152.402633
  15 H     1.0000    0     1.008   58.836434   12.066204  153.039093
  16 S    16.0000    0    32.060   49.721340    2.321888  144.459925
  17 C     6.0000    0    12.011   46.579859    1.565963  144.586159
  18 C     6.0000    0    12.011   45.031607    3.625232  144.844107
  19 C     6.0000    0    12.011   46.426792    5.944795  144.954089
  20 C     6.0000    0    12.011   48.917262    5.617268  144.294385
  21 H     1.0000    0     1.008   43.134889    3.512755  145.108668
  22 C     6.0000    0    12.011   44.917089    8.291684  145.048197
  23 H     1.0000    0     1.008   45.431095    9.516396  146.645772
  24 H     1.0000    0     1.008   43.067048    7.751411  145.508534
  25 C     6.0000    0    12.011   44.921625    9.762609  142.667142
  26 H     1.0000    0     1.008   44.532530    8.659991  140.952972
  27 H     1.0000    0     1.008   46.814563   10.403944  142.458327
  28 C     6.0000    0    12.011   43.167203   12.108042  142.711173
  29 H     1.0000    0     1.008   43.177974   13.085484  140.945980
  30 H     1.0000    0     1.008   43.836166   13.411084  144.276433
  31 H     1.0000    0     1.008   41.323397   11.686936  143.334971
  32 H     1.0000    0     1.008   56.403034   11.049947  142.261418
  33 H     1.0000    0     1.008   45.795056   -0.358201  144.249788

--------------------------------
INTERNAL COORDINATES (ANGSTROEM)
--------------------------------
 S      0   0   0     0.000000000000     0.00000000     0.00000000
 C      1   0   0     1.759076079679     0.00000000     0.00000000
 C      2   1   0     1.412195795950   114.85981937     0.00000000
 C      3   2   1     1.443441956713   106.53769334   356.87364692
 C      4   3   2     1.374666458636   117.78202281     3.78118579
 H      4   3   2     1.081019716564   122.65742843   184.61266989
 C      3   2   1     1.506134388459   130.13963337   174.79120063
 H      7   3   2     1.087514462616   103.58416313   128.22412022
 H      7   3   2     1.166857271863   106.98600082    17.29906313
 C      7   3   2     1.550317740207   121.54250760   251.95964776
 H     10   7   3     1.136021824130   109.07291176   300.85640430
 H     10   7   3     1.127559157827   111.18873946    67.95775229
 C     10   7   3     1.560899806650   103.16377565   188.00294684
 H     13  10   7     1.099136709604   105.25529692   300.47190431
 H     13  10   7     1.101815948741   112.82465541    63.00327891
 H     13  10   7     1.062604404329   105.63106373   178.08786530
 S      5   4   3     2.784104711106   127.13684386   133.86274534
 C     17   5   4     1.711154697952   118.69101369   103.24102977
 C     18  17   5     1.370171543831   113.50848539   352.99177092
 C     19  18  17     1.433573221569   112.15180309   359.85532648
 C     20  19  18     1.374325668246   112.05948056    11.67669998
 H     19  18  17     1.015163198900   123.93907134   185.76485052
 C     20  19  18     1.477527169429   116.26950785   175.77894611
 H     23  20  19     1.099411573570   112.80733401   126.51001120
 H     23  20  19     1.048580359343   106.46771131    15.08158854
 C     23  20  19     1.481040574866   114.34346300   253.36709084
 H     26  23  20     1.098031935055   115.03920133    48.44467379
 H     26  23  20     1.063387005939   104.93152270   293.48295924
 C     26  23  20     1.550136372227   114.01934689   175.42847418
 H     29  26  23     1.067760515097   111.80885400   181.75759310
 H     29  26  23     1.134399533498   108.10520856    60.48445944
 H     29  26  23     1.053856805074   112.94843790   309.74805124
 H      2   1   3     1.088306808809   125.81052001   171.51021240
 H     18  17   5     1.113974059023   124.72420280   165.44961976

---------------------------
INTERNAL COORDINATES (A.U.)
---------------------------
 S      0   0   0     0.000000000000     0.00000000     0.00000000
 C      1   0   0     3.324172039326     0.00000000     0.00000000
 C      2   1   0     2.668663301821   114.85981937     0.00000000
 C      3   2   1     2.727709988399   106.53769334   356.87364692
 C      4   3   2     2.597743132310   117.78202281     3.78118579
 H      4   3   2     2.042831209675   122.65742843   184.61266989
 C      3   2   1     2.846181515069   130.13963337   174.79120063
 H      7   3   2     2.055104501024   103.58416313   128.22412022
 H      7   3   2     2.205040681196   106.98600082    17.29906313
 C      7   3   2     2.929675949551   121.54250760   251.95964776
 H     10   7   3     2.146770129764   109.07291176   300.85640430
 H     10   7   3     2.130778008088   111.18873946    67.95775229
 C     10   7   3     2.949673157059   103.16377565   188.00294684
 H     13  10   7     2.077067364892   105.25529692   300.47190431
 H     13  10   7     2.082130393107   112.82465541    63.00327891
 H     13  10   7     2.008031312881   105.63106373   178.08786530
 S      5   4   3     5.261195432149   127.13684386   133.86274534
 C     17   5   4     3.233613751902   118.69101369   103.24102977
 C     18  17   5     2.589248974333   113.50848539   352.99177092
 C     19  18  17     2.709060781689   112.15180309   359.85532648
 C     20  19  18     2.597099131803   112.05948056    11.67669998
 H     19  18  17     1.918380427156   123.93907134   185.76485052
 C     20  19  18     2.792121705648   116.26950785   175.77894611
 H     23  20  19     2.077586782511   112.80733401   126.51001120
 H     23  20  19     1.981529708567   106.46771131    15.08158854
 C     23  20  19     2.798761079722   114.34346300   253.36709084
 H     26  23  20     2.074979643553   115.03920133    48.44467379
 H     26  23  20     2.009510215595   104.93152270   293.48295924
 C     26  23  20     2.929333213739   114.01934689   175.42847418
 H     29  26  23     2.017774950148   111.80885400   181.75759310
 H     29  26  23     2.143704444759   108.10520856    60.48445944
 H     29  26  23     1.991500745958   112.94843790   309.74805124
 H      2   1   3     2.056601818331   125.81052001   171.51021240
 H     18  17   5     2.105105891846   124.72420280   165.44961976

---------------------
BASIS SET INFORMATION
---------------------
There are 3 groups of distinct atoms

 Group   1 Type S   : 10s7p1d contracted to 4s3p1d pattern {5311/511/1}
 Group   2 Type C   : 7s4p1d contracted to 3s2p1d pattern {511/31/1}
 Group   3 Type H   : 4s1p contracted to 2s1p pattern {31/1}

Atom   0S    basis set group =>   1
Atom   1C    basis set group =>   2
Atom   2C    basis set group =>   2
Atom   3C    basis set group =>   2
Atom   4C    basis set group =>   2
Atom   5H    basis set group =>   3
Atom   6C    basis set group =>   2
Atom   7H    basis set group =>   3
Atom   8H    basis set group =>   3
Atom   9C    basis set group =>   2
Atom  10H    basis set group =>   3
Atom  11H    basis set group =>   3
Atom  12C    basis set group =>   2
Atom  13H    basis set group =>   3
Atom  14H    basis set group =>   3
Atom  15H    basis set group =>   3
Atom  16S    basis set group =>   1
Atom  17C    basis set group =>   2
Atom  18C    basis set group =>   2
Atom  19C    basis set group =>   2
Atom  20C    basis set group =>   2
Atom  21H    basis set group =>   3
Atom  22C    basis set group =>   2
Atom  23H    basis set group =>   3
Atom  24H    basis set group =>   3
Atom  25C    basis set group =>   2
Atom  26H    basis set group =>   3
Atom  27H    basis set group =>   3
Atom  28C    basis set group =>   2
Atom  29H    basis set group =>   3
Atom  30H    basis set group =>   3
Atom  31H    basis set group =>   3
Atom  32H    basis set group =>   3
Atom  33H    basis set group =>   3


           ************************************************************
           *        Program running with 16 parallel MPI-processes    *
           *              working on a common directory               *
           ************************************************************
------------------------------------------------------------------------------
                           ORCA GTO INTEGRAL CALCULATION
------------------------------------------------------------------------------

                         BASIS SET STATISTICS AND STARTUP INFO

 # of primitive gaussian shells          ...  294
 # of primitive gaussian functions       ...  534
 # of contracted shells                  ...  154
 # of contracted basis functions         ...  322
 Highest angular momentum                ...    2
 Maximum contraction depth               ...    5
 Integral package used                   ... LIBINT
 Integral threshhold            Thresh   ...  1.000e-10
 Primitive cut-off              TCut     ...  1.000e-11


------------------------------ INTEGRAL EVALUATION ----------------------------


 * One electron integrals 
 Pre-screening matrix                    ... done
 Shell pair data                         ... done (   0.003 sec)



           ************************************************************
           *        Program running with 16 parallel MPI-processes    *
           *              working on a common directory               *
           ************************************************************
-------------------------------------------------------------------------------
                                 ORCA SCF
-------------------------------------------------------------------------------

------------
SCF SETTINGS
------------
Hamiltonian:
 Density Functional     Method          .... DFT(GTOs)
 Exchange Functional    Exchange        .... WB97X-D3
 Correlation Functional Correlation     .... WB97X-D3
 Gradients option       PostSCFGGA      .... off
 Hybrid DFT is turned on
   Fraction HF Exchange ScalHFX         ....  0.195728
   Scaling of DF-GGA-X  ScalDFX         ....  0.000000
   Scaling of DF-GGA-C  ScalDFC         ....  1.000000
   Scaling of DF-LDA-C  ScalLDAC        ....  1.000000
   Perturbative correction              ....  0.000000
   Density functional embedding theory  .... OFF
 Long-range corrected/Screened/Range-Separated Hybrid DFT is turned on
   Amount of maximum screened exact exchange              ....  0.804272
   Range separation parameter mu (erf(mu*r12)/r12)        ....  0.250000


General Settings:
 Integral files         IntName         .... config_4549
 Hartree-Fock type      HFTyp           .... RHF
 Total Charge           Charge          ....    0
 Multiplicity           Mult            ....    1
 Number of Electrons    NEL             ....  134
 Basis Dimension        Dim             ....  322
 Nuclear Repulsion      ENuc            ....   1272.8182475562 Eh

Convergence Acceleration:
 DIIS                   CNVDIIS         .... on
   Start iteration      DIISMaxIt       ....    12
   Startup error        DIISStart       ....  0.200000
   # of expansion vecs  DIISMaxEq       ....     5
   Bias factor          DIISBfac        ....   1.050
   Max. coefficient     DIISMaxC        ....  10.000
 Newton-Raphson         CNVNR           .... off
 SOSCF                  CNVSOSCF        .... on
   Start iteration      SOSCFMaxIt      ....   150
   Startup grad/error   SOSCFStart      ....  0.003300
 Level Shifting         CNVShift        .... on
   Level shift para.    LevelShift      ....    0.2500
   Turn off err/grad.   ShiftErr        ....    0.0010
 Zerner damping         CNVZerner       .... off
 Static damping         CNVDamp         .... on
   Fraction old density DampFac         ....    0.7000
   Max. Damping (<1)    DampMax         ....    0.9800
   Min. Damping (>=0)   DampMin         ....    0.0000
   Turn off err/grad.   DampErr         ....    0.1000
 Fernandez-Rico         CNVRico         .... off

SCF Procedure:
 Maximum # iterations   MaxIter         ....   125
 SCF integral mode      SCFMode         .... Direct
   Integral package                     .... LIBINT
 Reset frequency        DirectResetFreq ....    20
 Integral Threshold     Thresh          ....  1.000e-10 Eh
 Primitive CutOff       TCut            ....  1.000e-11 Eh

Convergence Tolerance:
 Convergence Check Mode ConvCheckMode   .... Total+1el-Energy
 Convergence forced     ConvForced      .... 0
 Energy Change          TolE            ....  1.000e-06 Eh
 1-El. energy change                    ....  1.000e-03 Eh
 Orbital Gradient       TolG            ....  5.000e-05
 Orbital Rotation angle TolX            ....  5.000e-05
 DIIS Error             TolErr          ....  1.000e-06


Diagonalization of the overlap matrix:
Smallest eigenvalue                        ... 6.707e-04
Time for diagonalization                   ...    0.017 sec
Threshold for overlap eigenvalues          ... 1.000e-08
Number of eigenvalues below threshold      ... 0
Time for construction of square roots      ...    0.037 sec
Total time needed                          ...    0.054 sec

-------------------
DFT GRID GENERATION
-------------------

General Integration Accuracy     IntAcc      ...  4.340
Radial Grid Type                 RadialGrid  ... Gauss-Chebyshev
Angular Grid (max. acc.)         AngularGrid ... Lebedev-110
Angular grid pruning method      GridPruning ... 3 (G Style)
Weight generation scheme         WeightScheme... Becke
Basis function cutoff            BFCut       ...    1.0000e-10
Integration weight cutoff        WCut        ...    1.0000e-14
Grids for H and He will be reduced by one unit

# of grid points (after initial pruning)     ...  41088 (   0.0 sec)
# of grid points (after weights+screening)   ...  37031 (   0.0 sec)
nearest neighbour list constructed           ...    0.0 sec
Grid point re-assignment to atoms done       ...    0.0 sec
Grid point division into batches done        ...    0.0 sec
Reduced shell lists constructed in    0.1 sec

Total number of grid points                  ...    37031
Total number of batches                      ...      593
Average number of points per batch           ...       62
Average number of grid points per atom       ...     1089
Average number of shells per batch           ...    76.72 (49.82%)
Average number of basis functions per batch  ...   150.92 (46.87%)
Average number of large shells per batch     ...    48.72 (63.50%)
Average number of large basis fcns per batch ...    99.49 (65.92%)
Maximum spatial batch extension              ...  15.22, 18.25, 16.91 au
Average spatial batch extension              ...   0.20,  0.24,  0.22 au

Time for grid setup =    0.182 sec

------------------------------
INITIAL GUESS: MODEL POTENTIAL
------------------------------
Loading Hartree-Fock densities                     ... done
Calculating cut-offs                               ... done
Setting up the integral package                    ... done
Initializing the effective Hamiltonian             ... done
Starting the Coulomb interaction                   ... done (   0.0 sec)
Reading the grid                                   ... done
Mapping shells                                     ... done
Starting the XC term evaluation                    ... done (   0.1 sec)
  promolecular density results
     # of electrons  =    133.988331898
     EX              =   -126.719135543
     EC              =     -4.618085662
     EX+EC           =   -131.337221205
Transforming the Hamiltonian                       ... done (   0.0 sec)
Diagonalizing the Hamiltonian                      ... done (   0.0 sec)
Back transforming the eigenvectors                 ... done (   0.0 sec)
Now organizing SCF variables                       ... done
                      ------------------
                      INITIAL GUESS DONE (   0.4 sec)
                      ------------------
--------------
SCF ITERATIONS
--------------
ITER       Energy         Delta-E        Max-DP      RMS-DP      [F,P]     Damp
               ***  Starting incremental Fock matrix formation  ***
  0  -1339.4081254716   0.000000000000 0.06660835  0.00161400  0.1637716 0.7000
  1  -1339.5998292190  -0.191703747348 0.04464886  0.00118295  0.0994621 0.7000
                               ***Turning on DIIS***
  2  -1339.6928148483  -0.092985629349 0.09839003  0.00223051  0.0519231 0.0000
  3  -1339.8324073556  -0.139592507283 0.04436412  0.00097929  0.0433983 0.0000
  4  -1339.8627750996  -0.030367744032 0.00807620  0.00021141  0.0080605 0.0000
                      *** Initiating the SOSCF procedure ***
                           *** Shutting down DIIS ***
                      *** Re-Reading the Fockian *** 
                      *** Removing any level shift *** 
ITER      Energy       Delta-E        Grad      Rot      Max-DP    RMS-DP
  5  -1339.86377589  -0.0010007926  0.001570  0.001570  0.003107  0.000103
               *** Restarting incremental Fock matrix formation ***
  6  -1339.86397554  -0.0001996483  0.001124  0.003075  0.003111  0.000067
  7  -1339.86403857  -0.0000630293  0.000804  0.004361  0.004149  0.000067
  8  -1339.86405537  -0.0000168027  0.000416  0.000940  0.000835  0.000022
  9  -1339.86406037  -0.0000050019  0.000158  0.000483  0.000356  0.000009
 10  -1339.86406090  -0.0000005276  0.000087  0.000234  0.000191  0.000004
                 **** Energy Check signals convergence ****
              ***Rediagonalizing the Fockian in SOSCF/NRSCF***

               *****************************************************
               *                     SUCCESS                       *
               *           SCF CONVERGED AFTER  11 CYCLES          *
               *****************************************************

Setting up the final grid:

General Integration Accuracy     IntAcc      ...  4.670
Radial Grid Type                 RadialGrid  ... Gauss-Chebyshev
Angular Grid (max. acc.)         AngularGrid ... Lebedev-302
Angular grid pruning method      GridPruning ... 3 (G Style)
Weight generation scheme         WeightScheme... Becke
Basis function cutoff            BFCut       ...    1.0000e-10
Integration weight cutoff        WCut        ...    1.0000e-14
Grids for H and He will be reduced by one unit

# of grid points (after initial pruning)     ... 161752 (   0.0 sec)
# of grid points (after weights+screening)   ... 143164 (   0.2 sec)
nearest neighbour list constructed           ...    0.0 sec
Grid point re-assignment to atoms done       ...    0.0 sec
Grid point division into batches done        ...    0.6 sec
Reduced shell lists constructed in    0.7 sec

Total number of grid points                  ...   143164
Total number of batches                      ...     2252
Average number of points per batch           ...       63
Average number of grid points per atom       ...     4211
Average number of shells per batch           ...    71.51 (46.43%)
Average number of basis functions per batch  ...   139.99 (43.47%)
Average number of large shells per batch     ...    44.06 (61.61%)
Average number of large basis fcns per batch ...    89.80 (64.15%)
Maximum spatial batch extension              ...  11.85, 15.16, 14.24 au
Average spatial batch extension              ...   0.13,  0.14,  0.13 au

Final grid set up in    1.1 sec
Final integration                            ... done (   0.3 sec)
Change in XC energy                          ...     0.006912272
Integrated number of electrons               ...   134.000096234
Previous integrated no of electrons          ...   133.998579954

----------------
TOTAL SCF ENERGY
----------------

Total Energy       :        -1339.85714888 Eh          -36459.36658 eV

Components:
Nuclear Repulsion  :         1272.81824756 Eh           34635.14533 eV
Electronic Energy  :        -2612.67539644 Eh          -71094.51191 eV
One Electron Energy:        -4362.36680259 Eh         -118706.03560 eV
Two Electron Energy:         1749.69140616 Eh           47611.52368 eV

Virial components:
Potential Energy   :        -2671.42191906 Eh          -72693.08606 eV
Kinetic Energy     :         1331.56477018 Eh           36233.71948 eV
Virial Ratio       :            2.00622754


DFT components:
N(Alpha)           :       67.000048117205 electrons
N(Beta)            :       67.000048117205 electrons
N(Total)           :      134.000096234411 electrons
E(XC)              :      -94.257217758244 Eh       
DFET-embed. en.    :        0.000000000000 Eh       

---------------
SCF CONVERGENCE
---------------

  Last Energy change         ...   -2.5153e-07  Tolerance :   1.0000e-06
  Last MAX-Density change    ...    3.1448e-05  Tolerance :   1.0000e-05
  Last RMS-Density change    ...    6.8176e-07  Tolerance :   1.0000e-06
  Last Orbital Gradient      ...    5.9172e-06  Tolerance :   5.0000e-05
  Last Orbital Rotation      ...    1.8911e-05  Tolerance :   5.0000e-05

             **** THE GBW FILE WAS UPDATED (config_4549.gbw) ****
             **** DENSITY FILE WAS UPDATED (config_4549.scfp) ****
             **** ENERGY FILE WAS UPDATED (config_4549.en.tmp) ****
             **** THE GBW FILE WAS UPDATED (config_4549.gbw) ****
             **** DENSITY FILE WAS UPDATED (config_4549.scfp) ****
----------------
ORBITAL ENERGIES
----------------

  NO   OCC          E(Eh)            E(eV) 
   0   2.0000     -88.967912     -2420.9400 
   1   2.0000     -88.962353     -2420.7887 
   2   2.0000     -10.327406      -281.0230 
   3   2.0000     -10.326210      -280.9905 
   4   2.0000     -10.317147      -280.7438 
   5   2.0000     -10.314949      -280.6840 
   6   2.0000     -10.303628      -280.3760 
   7   2.0000     -10.303272      -280.3663 
   8   2.0000     -10.302331      -280.3407 
   9   2.0000     -10.298569      -280.2383 
  10   2.0000     -10.292151      -280.0637 
  11   2.0000     -10.282354      -279.7971 
  12   2.0000     -10.281998      -279.7874 
  13   2.0000     -10.280064      -279.7348 
  14   2.0000     -10.275491      -279.6103 
  15   2.0000     -10.273504      -279.5563 
  16   2.0000      -8.082138      -219.9262 
  17   2.0000      -8.077364      -219.7963 
  18   2.0000      -6.040670      -164.3750 
  19   2.0000      -6.036673      -164.2662 
  20   2.0000      -6.035869      -164.2444 
  21   2.0000      -6.032951      -164.1649 
  22   2.0000      -6.031944      -164.1375 
  23   2.0000      -6.027997      -164.0301 
  24   2.0000      -1.003294       -27.3010 
  25   2.0000      -0.982428       -26.7332 
  26   2.0000      -0.917686       -24.9715 
  27   2.0000      -0.911055       -24.7911 
  28   2.0000      -0.864624       -23.5276 
  29   2.0000      -0.851257       -23.1639 
  30   2.0000      -0.847115       -23.0512 
  31   2.0000      -0.809424       -22.0256 
  32   2.0000      -0.782094       -21.2818 
  33   2.0000      -0.769190       -20.9307 
  34   2.0000      -0.708586       -19.2816 
  35   2.0000      -0.697814       -18.9885 
  36   2.0000      -0.686947       -18.6928 
  37   2.0000      -0.664074       -18.0704 
  38   2.0000      -0.637555       -17.3487 
  39   2.0000      -0.618609       -16.8332 
  40   2.0000      -0.600838       -16.3496 
  41   2.0000      -0.571007       -15.5379 
  42   2.0000      -0.568608       -15.4726 
  43   2.0000      -0.560720       -15.2580 
  44   2.0000      -0.531715       -14.4687 
  45   2.0000      -0.526757       -14.3338 
  46   2.0000      -0.511854       -13.9283 
  47   2.0000      -0.507347       -13.8056 
  48   2.0000      -0.501113       -13.6360 
  49   2.0000      -0.493137       -13.4189 
  50   2.0000      -0.490935       -13.3590 
  51   2.0000      -0.481882       -13.1127 
  52   2.0000      -0.463094       -12.6014 
  53   2.0000      -0.461676       -12.5628 
  54   2.0000      -0.455525       -12.3955 
  55   2.0000      -0.446188       -12.1414 
  56   2.0000      -0.445836       -12.1318 
  57   2.0000      -0.442179       -12.0323 
  58   2.0000      -0.440013       -11.9734 
  59   2.0000      -0.426543       -11.6068 
  60   2.0000      -0.420433       -11.4406 
  61   2.0000      -0.419512       -11.4155 
  62   2.0000      -0.408753       -11.1227 
  63   2.0000      -0.335168        -9.1204 
  64   2.0000      -0.328248        -8.9321 
  65   2.0000      -0.325566        -8.8591 
  66   2.0000      -0.303616        -8.2618 
  67   0.0000       0.037540         1.0215 
  68   0.0000       0.062799         1.7089 
  69   0.0000       0.111705         3.0396 
  70   0.0000       0.118212         3.2167 
  71   0.0000       0.126440         3.4406 
  72   0.0000       0.138527         3.7695 
  73   0.0000       0.145475         3.9586 
  74   0.0000       0.152556         4.1513 
  75   0.0000       0.163496         4.4489 
  76   0.0000       0.168768         4.5924 
  77   0.0000       0.176411         4.8004 
  78   0.0000       0.185136         5.0378 
  79   0.0000       0.192048         5.2259 
  80   0.0000       0.195793         5.3278 
  81   0.0000       0.207468         5.6455 
  82   0.0000       0.210000         5.7144 
  83   0.0000       0.212952         5.7947 
  84   0.0000       0.227268         6.1843 
  85   0.0000       0.237534         6.4636 
  86   0.0000       0.239030         6.5043 
  87   0.0000       0.241920         6.5830 
  88   0.0000       0.246579         6.7098 
  89   0.0000       0.253825         6.9069 
  90   0.0000       0.256963         6.9923 
  91   0.0000       0.267835         7.2882 
  92   0.0000       0.269999         7.3471 
  93   0.0000       0.300000         8.1634 
  94   0.0000       0.303419         8.2565 
  95   0.0000       0.315308         8.5800 
  96   0.0000       0.326572         8.8865 
  97   0.0000       0.343433         9.3453 
  98   0.0000       0.345966         9.4142 
  99   0.0000       0.372483        10.1358 
 100   0.0000       0.388204        10.5636 
 101   0.0000       0.397448        10.8151 
 102   0.0000       0.411267        11.1911 
 103   0.0000       0.423628        11.5275 
 104   0.0000       0.434216        11.8156 
 105   0.0000       0.449393        12.2286 
 106   0.0000       0.469213        12.7679 
 107   0.0000       0.480563        13.0768 
 108   0.0000       0.487775        13.2730 
 109   0.0000       0.504783        13.7358 
 110   0.0000       0.505997        13.7689 
 111   0.0000       0.512231        13.9385 
 112   0.0000       0.516748        14.0614 
 113   0.0000       0.522115        14.2075 
 114   0.0000       0.529056        14.3963 
 115   0.0000       0.540580        14.7099 
 116   0.0000       0.542594        14.7647 
 117   0.0000       0.550196        14.9716 
 118   0.0000       0.557468        15.1695 
 119   0.0000       0.565859        15.3978 
 120   0.0000       0.574998        15.6465 
 121   0.0000       0.584708        15.9107 
 122   0.0000       0.596974        16.2445 
 123   0.0000       0.606640        16.5075 
 124   0.0000       0.624867        17.0035 
 125   0.0000       0.627293        17.0695 
 126   0.0000       0.639036        17.3891 
 127   0.0000       0.641418        17.4539 
 128   0.0000       0.650303        17.6956 
 129   0.0000       0.658167        17.9096 
 130   0.0000       0.664097        18.0710 
 131   0.0000       0.685641        18.6572 
 132   0.0000       0.689788        18.7701 
 133   0.0000       0.694881        18.9087 
 134   0.0000       0.697769        18.9873 
 135   0.0000       0.713734        19.4217 
 136   0.0000       0.720182        19.5971 
 137   0.0000       0.723398        19.6846 
 138   0.0000       0.730618        19.8811 
 139   0.0000       0.735831        20.0230 
 140   0.0000       0.738119        20.0852 
 141   0.0000       0.744720        20.2648 
 142   0.0000       0.746916        20.3246 
 143   0.0000       0.750882        20.4325 
 144   0.0000       0.757851        20.6222 
 145   0.0000       0.760687        20.6993 
 146   0.0000       0.770419        20.9642 
 147   0.0000       0.778201        21.1759 
 148   0.0000       0.781329        21.2610 
 149   0.0000       0.783790        21.3280 
 150   0.0000       0.790129        21.5005 
 151   0.0000       0.790439        21.5089 
 152   0.0000       0.791954        21.5502 
 153   0.0000       0.794837        21.6286 
 154   0.0000       0.800279        21.7767 
 155   0.0000       0.803502        21.8644 
 156   0.0000       0.812981        22.1223 
 157   0.0000       0.814731        22.1700 
 158   0.0000       0.817636        22.2490 
 159   0.0000       0.823178        22.3998 
 160   0.0000       0.830938        22.6110 
 161   0.0000       0.833807        22.6890 
 162   0.0000       0.844297        22.9745 
 163   0.0000       0.847296        23.0561 
 164   0.0000       0.853812        23.2334 
 165   0.0000       0.868435        23.6313 
 166   0.0000       0.878279        23.8992 
 167   0.0000       0.882146        24.0044 
 168   0.0000       0.893512        24.3137 
 169   0.0000       0.898536        24.4504 
 170   0.0000       0.914610        24.8878 
 171   0.0000       0.917371        24.9629 
 172   0.0000       0.924030        25.1441 
 173   0.0000       0.933920        25.4133 
 174   0.0000       0.955462        25.9994 
 175   0.0000       0.971672        26.4405 
 176   0.0000       0.982276        26.7291 
 177   0.0000       1.022536        27.8246 
 178   0.0000       1.029236        28.0069 
 179   0.0000       1.046226        28.4692 
 180   0.0000       1.054749        28.7012 
 181   0.0000       1.073768        29.2187 
 182   0.0000       1.090943        29.6861 
 183   0.0000       1.104723        30.0610 
 184   0.0000       1.118852        30.4455 
 185   0.0000       1.131387        30.7866 
 186   0.0000       1.141841        31.0711 
 187   0.0000       1.154336        31.4111 
 188   0.0000       1.166941        31.7541 
 189   0.0000       1.180913        32.1343 
 190   0.0000       1.200796        32.6753 
 191   0.0000       1.231613        33.5139 
 192   0.0000       1.246128        33.9089 
 193   0.0000       1.259791        34.2807 
 194   0.0000       1.264643        34.4127 
 195   0.0000       1.318854        35.8878 
 196   0.0000       1.326600        36.0986 
 197   0.0000       1.337513        36.3956 
 198   0.0000       1.359378        36.9906 
 199   0.0000       1.389947        37.8224 
 200   0.0000       1.407493        38.2998 
 201   0.0000       1.414458        38.4894 
 202   0.0000       1.430186        38.9173 
 203   0.0000       1.446515        39.3617 
 204   0.0000       1.457146        39.6510 
 205   0.0000       1.464574        39.8531 
 206   0.0000       1.478467        40.2311 
 207   0.0000       1.498974        40.7891 
 208   0.0000       1.520140        41.3651 
 209   0.0000       1.524757        41.4908 
 210   0.0000       1.572079        42.7784 
 211   0.0000       1.603219        43.6258 
 212   0.0000       1.618210        44.0337 
 213   0.0000       1.624874        44.2151 
 214   0.0000       1.644440        44.7475 
 215   0.0000       1.653733        45.0004 
 216   0.0000       1.681471        45.7552 
 217   0.0000       1.687047        45.9069 
 218   0.0000       1.756679        47.8017 
 219   0.0000       1.781500        48.4771 
 220   0.0000       1.799773        48.9743 
 221   0.0000       1.804174        49.0941 
 222   0.0000       1.810230        49.2589 
 223   0.0000       1.820825        49.5472 
 224   0.0000       1.838141        50.0183 
 225   0.0000       1.840066        50.0707 
 226   0.0000       1.846768        50.2531 
 227   0.0000       1.854573        50.4655 
 228   0.0000       1.860012        50.6135 
 229   0.0000       1.866292        50.7844 
 230   0.0000       1.868409        50.8420 
 231   0.0000       1.873702        50.9860 
 232   0.0000       1.882699        51.2309 
 233   0.0000       1.887853        51.3711 
 234   0.0000       1.899374        51.6846 
 235   0.0000       1.903228        51.7895 
 236   0.0000       1.906363        51.8748 
 237   0.0000       1.918782        52.2127 
 238   0.0000       1.932705        52.5916 
 239   0.0000       1.936413        52.6925 
 240   0.0000       1.945880        52.9501 
 241   0.0000       1.954805        53.1929 
 242   0.0000       1.964697        53.4621 
 243   0.0000       1.977641        53.8143 
 244   0.0000       1.981554        53.9208 
 245   0.0000       1.985058        54.0162 
 246   0.0000       1.999383        54.4060 
 247   0.0000       2.006578        54.6018 
 248   0.0000       2.011655        54.7399 
 249   0.0000       2.018983        54.9393 
 250   0.0000       2.020623        54.9839 
 251   0.0000       2.042338        55.5748 
 252   0.0000       2.065731        56.2114 
 253   0.0000       2.083521        56.6955 
 254   0.0000       2.104276        57.2603 
 255   0.0000       2.106350        57.3167 
 256   0.0000       2.109424        57.4003 
 257   0.0000       2.120411        57.6993 
 258   0.0000       2.127525        57.8929 
 259   0.0000       2.144081        58.3434 
 260   0.0000       2.177184        59.2442 
 261   0.0000       2.183224        59.4085 
 262   0.0000       2.192745        59.6676 
 263   0.0000       2.195744        59.7492 
 264   0.0000       2.219758        60.4027 
 265   0.0000       2.232768        60.7567 
 266   0.0000       2.262425        61.5637 
 267   0.0000       2.279512        62.0287 
 268   0.0000       2.292431        62.3802 
 269   0.0000       2.327131        63.3245 
 270   0.0000       2.333393        63.4949 
 271   0.0000       2.339999        63.6746 
 272   0.0000       2.363994        64.3276 
 273   0.0000       2.386591        64.9424 
 274   0.0000       2.408671        65.5433 
 275   0.0000       2.411466        65.6193 
 276   0.0000       2.431126        66.1543 
 277   0.0000       2.451086        66.6974 
 278   0.0000       2.457108        66.8613 
 279   0.0000       2.476550        67.3904 
 280   0.0000       2.487682        67.6933 
 281   0.0000       2.504320        68.1460 
 282   0.0000       2.515006        68.4368 
 283   0.0000       2.533323        68.9352 
 284   0.0000       2.545675        69.2713 
 285   0.0000       2.550365        69.3990 
 286   0.0000       2.560869        69.6848 
 287   0.0000       2.592770        70.5529 
 288   0.0000       2.611107        71.0518 
 289   0.0000       2.613441        71.1153 
 290   0.0000       2.630860        71.5893 
 291   0.0000       2.670768        72.6753 
 292   0.0000       2.683978        73.0347 
 293   0.0000       2.689827        73.1939 
 294   0.0000       2.725518        74.1651 
 295   0.0000       2.745551        74.7102 
 296   0.0000       2.762876        75.1817 
 297   0.0000       2.773983        75.4839 
 298   0.0000       2.784369        75.7665 
 299   0.0000       2.848654        77.5158 
 300   0.0000       2.883076        78.4525 
 301   0.0000       2.886076        78.5341 
 302   0.0000       2.903680        79.0132 
 303   0.0000       2.929830        79.7247 
 304   0.0000       2.936542        79.9074 
 305   0.0000       2.957958        80.4901 
 306   0.0000       2.983391        81.1822 
 307   0.0000       2.992490        81.4298 
 308   0.0000       3.014410        82.0263 
 309   0.0000       3.046968        82.9122 
 310   0.0000       3.065490        83.4162 
 311   0.0000       3.080418        83.8224 
 312   0.0000       3.090904        84.1078 
 313   0.0000       3.105599        84.5076 
 314   0.0000       3.132795        85.2477 
 315   0.0000       3.147367        85.6442 
 316   0.0000       3.161018        86.0157 
 317   0.0000       3.203114        87.1612 
 318   0.0000       3.213887        87.4543 
 319   0.0000       3.321879        90.3929 
 320   0.0000       3.363949        91.5377 
 321   0.0000       3.485617        94.8485 

                    ********************************
                    * MULLIKEN POPULATION ANALYSIS *
                    ********************************

-----------------------
MULLIKEN ATOMIC CHARGES
-----------------------
   0 S :    0.121830
   1 C :   -0.116944
   2 C :   -0.073686
   3 C :    0.039660
   4 C :   -0.180524
   5 H :    0.002811
   6 C :   -0.001751
   7 H :    0.031470
   8 H :    0.031409
   9 C :   -0.087979
  10 H :    0.044172
  11 H :    0.055229
  12 C :   -0.036761
  13 H :    0.035736
  14 H :    0.036478
  15 H :    0.030211
  16 S :    0.106260
  17 C :   -0.079939
  18 C :   -0.010867
  19 C :   -0.013566
  20 C :   -0.170186
  21 H :   -0.020112
  22 C :    0.108569
  23 H :    0.018235
  24 H :   -0.017353
  25 C :   -0.064277
  26 H :    0.029584
  27 H :    0.024728
  28 C :   -0.026673
  29 H :    0.039062
  30 H :    0.022118
  31 H :    0.012933
  32 H :    0.042468
  33 H :    0.067657
Sum of atomic charges:    0.0000000

--------------------------------
MULLIKEN REDUCED ORBITAL CHARGES
--------------------------------
  0 S s       :     5.846502  s :     5.846502
      pz      :     3.304985  p :     9.926122
      px      :     3.255920
      py      :     3.365217
      dz2     :     0.018677  d :     0.105546
      dxz     :     0.029319
      dyz     :     0.020805
      dx2y2   :     0.020675
      dxy     :     0.016071
  1 C s       :     3.178823  s :     3.178823
      pz      :     0.974580  p :     2.905006
      px      :     0.949976
      py      :     0.980449
      dz2     :     0.007341  d :     0.033115
      dxz     :     0.009262
      dyz     :     0.007865
      dx2y2   :     0.003923
      dxy     :     0.004724
  2 C s       :     3.090395  s :     3.090395
      pz      :     0.946949  p :     2.940943
      px      :     0.993478
      py      :     1.000516
      dz2     :     0.011475  d :     0.042348
      dxz     :     0.009006
      dyz     :     0.009171
      dx2y2   :     0.005973
      dxy     :     0.006723
  3 C s       :     3.195394  s :     3.195394
      pz      :     0.851494  p :     2.730217
      px      :     0.926478
      py      :     0.952245
      dz2     :     0.007413  d :     0.034730
      dxz     :     0.008882
      dyz     :     0.006118
      dx2y2   :     0.007334
      dxy     :     0.004984
  4 C s       :     3.095694  s :     3.095694
      pz      :     0.939447  p :     3.040543
      px      :     1.047048
      py      :     1.054048
      dz2     :     0.009907  d :     0.044287
      dxz     :     0.013183
      dyz     :     0.009147
      dx2y2   :     0.005614
      dxy     :     0.006435
  5 H s       :     0.973551  s :     0.973551
      pz      :     0.012863  p :     0.023638
      px      :     0.006426
      py      :     0.004350
  6 C s       :     3.008268  s :     3.008268
      pz      :     0.958815  p :     2.958120
      px      :     0.980020
      py      :     1.019285
      dz2     :     0.004977  d :     0.035363
      dxz     :     0.009555
      dyz     :     0.009080
      dx2y2   :     0.002951
      dxy     :     0.008799
  7 H s       :     0.945315  s :     0.945315
      pz      :     0.005978  p :     0.023215
      px      :     0.009516
      py      :     0.007722
  8 H s       :     0.948895  s :     0.948895
      pz      :     0.005355  p :     0.019696
      px      :     0.006755
      py      :     0.007586
  9 C s       :     3.111654  s :     3.111654
      pz      :     0.949407  p :     2.942245
      px      :     0.987691
      py      :     1.005147
      dz2     :     0.004709  d :     0.034080
      dxz     :     0.007952
      dyz     :     0.009217
      dx2y2   :     0.004142
      dxy     :     0.008059
 10 H s       :     0.935175  s :     0.935175
      pz      :     0.006314  p :     0.020654
      px      :     0.007014
      py      :     0.007326
 11 H s       :     0.924563  s :     0.924563
      pz      :     0.004820  p :     0.020208
      px      :     0.010175
      py      :     0.005213
 12 C s       :     3.022094  s :     3.022094
      pz      :     0.980297  p :     2.986877
      px      :     1.029329
      py      :     0.977251
      dz2     :     0.002872  d :     0.027790
      dxz     :     0.007371
      dyz     :     0.008182
      dx2y2   :     0.003033
      dxy     :     0.006332
 13 H s       :     0.940742  s :     0.940742
      pz      :     0.007683  p :     0.023522
      px      :     0.007207
      py      :     0.008633
 14 H s       :     0.940397  s :     0.940397
      pz      :     0.006335  p :     0.023125
      px      :     0.010870
      py      :     0.005920
 15 H s       :     0.944825  s :     0.944825
      pz      :     0.010363  p :     0.024964
      px      :     0.007943
      py      :     0.006659
 16 S s       :     5.847064  s :     5.847064
      pz      :     3.674842  p :     9.940697
      px      :     3.210178
      py      :     3.055677
      dz2     :     0.012034  d :     0.105979
      dxz     :     0.014623
      dyz     :     0.017130
      dx2y2   :     0.040420
      dxy     :     0.021772
 17 C s       :     3.132083  s :     3.132083
      pz      :     1.067373  p :     2.911245
      px      :     0.877600
      py      :     0.966272
      dz2     :     0.003018  d :     0.036610
      dxz     :     0.007477
      dyz     :     0.004210
      dx2y2   :     0.012713
      dxy     :     0.009193
 18 C s       :     3.163690  s :     3.163690
      pz      :     1.031292  p :     2.811848
      px      :     0.843997
      py      :     0.936558
      dz2     :     0.002711  d :     0.035330
      dxz     :     0.003382
      dyz     :     0.006726
      dx2y2   :     0.011541
      dxy     :     0.010970
 19 C s       :     3.051380  s :     3.051380
      pz      :     0.968900  p :     2.916973
      px      :     0.986232
      py      :     0.961840
      dz2     :     0.003980  d :     0.045214
      dxz     :     0.008411
      dyz     :     0.006456
      dx2y2   :     0.013177
      dxy     :     0.013188
 20 C s       :     3.108787  s :     3.108787
      pz      :     1.137748  p :     3.018654
      px      :     1.000805
      py      :     0.880101
      dz2     :     0.004009  d :     0.042745
      dxz     :     0.007201
      dyz     :     0.004603
      dx2y2   :     0.015372
      dxy     :     0.011560
 21 H s       :     0.993062  s :     0.993062
      pz      :     0.006506  p :     0.027050
      px      :     0.016473
      py      :     0.004071
 22 C s       :     2.885529  s :     2.885529
      pz      :     1.007083  p :     2.966457
      px      :     0.996748
      py      :     0.962626
      dz2     :     0.008169  d :     0.039446
      dxz     :     0.005297
      dyz     :     0.010390
      dx2y2   :     0.007399
      dxy     :     0.008191
 23 H s       :     0.958887  s :     0.958887
      pz      :     0.009920  p :     0.022878
      px      :     0.005595
      py      :     0.007363
 24 H s       :     0.991581  s :     0.991581
      pz      :     0.005874  p :     0.025771
      px      :     0.014149
      py      :     0.005748
 25 C s       :     3.035309  s :     3.035309
      pz      :     0.982505  p :     2.990660
      px      :     1.027278
      py      :     0.980877
      dz2     :     0.009322  d :     0.038308
      dxz     :     0.003659
      dyz     :     0.010312
      dx2y2   :     0.007619
      dxy     :     0.007397
 26 H s       :     0.948222  s :     0.948222
      pz      :     0.010586  p :     0.022195
      px      :     0.005138
      py      :     0.006471
 27 H s       :     0.950390  s :     0.950390
      pz      :     0.005220  p :     0.024882
      px      :     0.014029
      py      :     0.005633
 28 C s       :     2.998714  s :     2.998714
      pz      :     1.000220  p :     2.999876
      px      :     1.006657
      py      :     0.992999
      dz2     :     0.005016  d :     0.028083
      dxz     :     0.002972
      dyz     :     0.008206
      dx2y2   :     0.007055
      dxy     :     0.004834
 29 H s       :     0.936767  s :     0.936767
      pz      :     0.012310  p :     0.024171
      px      :     0.004893
      py      :     0.006969
 30 H s       :     0.955793  s :     0.955793
      pz      :     0.009005  p :     0.022089
      px      :     0.005698
      py      :     0.007386
 31 H s       :     0.961046  s :     0.961046
      pz      :     0.006792  p :     0.026021
      px      :     0.013796
      py      :     0.005434
 32 H s       :     0.934019  s :     0.934019
      pz      :     0.004967  p :     0.023512
      px      :     0.011928
      py      :     0.006617
 33 H s       :     0.909928  s :     0.909928
      pz      :     0.005043  p :     0.022415
      px      :     0.004202
      py      :     0.013170


                     *******************************
                     * LOEWDIN POPULATION ANALYSIS *
                     *******************************

----------------------
LOEWDIN ATOMIC CHARGES
----------------------
   0 S :    0.406552
   1 C :   -0.196269
   2 C :   -0.067520
   3 C :   -0.057973
   4 C :   -0.208683
   5 H :    0.027100
   6 C :   -0.044859
   7 H :    0.032876
   8 H :    0.037535
   9 C :   -0.038966
  10 H :    0.030633
  11 H :    0.034146
  12 C :   -0.060653
  13 H :    0.026353
  14 H :    0.027802
  15 H :    0.020423
  16 S :    0.402124
  17 C :   -0.192336
  18 C :   -0.063949
  19 C :   -0.043962
  20 C :   -0.190602
  21 H :    0.013727
  22 C :   -0.030745
  23 H :    0.033858
  24 H :    0.017881
  25 C :   -0.035191
  26 H :    0.026314
  27 H :    0.021984
  28 C :   -0.060360
  29 H :    0.024837
  30 H :    0.030260
  31 H :    0.013949
  32 H :    0.025844
  33 H :    0.037867

-------------------------------
LOEWDIN REDUCED ORBITAL CHARGES
-------------------------------
  0 S s       :     5.513800  s :     5.513800
      pz      :     3.346200  p :     9.948979
      px      :     3.246474
      py      :     3.356305
      dz2     :     0.021722  d :     0.130669
      dxz     :     0.037618
      dyz     :     0.024800
      dx2y2   :     0.025234
      dxy     :     0.021295
  1 C s       :     2.941550  s :     2.941550
      pz      :     1.067322  p :     3.177180
      px      :     1.053250
      py      :     1.056607
      dz2     :     0.020496  d :     0.077540
      dxz     :     0.021920
      dyz     :     0.017493
      dx2y2   :     0.008023
      dxy     :     0.009608
  2 C s       :     2.870359  s :     2.870359
      pz      :     1.061632  p :     3.093278
      px      :     1.027591
      py      :     1.004055
      dz2     :     0.032145  d :     0.103883
      dxz     :     0.022310
      dyz     :     0.021094
      dx2y2   :     0.011981
      dxy     :     0.016353
  3 C s       :     2.868293  s :     2.868293
      pz      :     1.050308  p :     3.097935
      px      :     1.025891
      py      :     1.021737
      dz2     :     0.021801  d :     0.091745
      dxz     :     0.023043
      dyz     :     0.017045
      dx2y2   :     0.016013
      dxy     :     0.013842
  4 C s       :     2.913089  s :     2.913089
      pz      :     1.047081  p :     3.190487
      px      :     1.055001
      py      :     1.088405
      dz2     :     0.024687  d :     0.105106
      dxz     :     0.030259
      dyz     :     0.022468
      dx2y2   :     0.011870
      dxy     :     0.015823
  5 H s       :     0.902707  s :     0.902707
      pz      :     0.036848  p :     0.070193
      px      :     0.019817
      py      :     0.013528
  6 C s       :     2.846063  s :     2.846063
      pz      :     1.027305  p :     3.110518
      px      :     1.043659
      py      :     1.039555
      dz2     :     0.011081  d :     0.088277
      dxz     :     0.025509
      dyz     :     0.023355
      dx2y2   :     0.005614
      dxy     :     0.022719
  7 H s       :     0.898171  s :     0.898171
      pz      :     0.017903  p :     0.068952
      px      :     0.028222
      py      :     0.022827
  8 H s       :     0.907838  s :     0.907838
      pz      :     0.015246  p :     0.054626
      px      :     0.017798
      py      :     0.021582
  9 C s       :     2.865265  s :     2.865265
      pz      :     1.014462  p :     3.093099
      px      :     1.039776
      py      :     1.038861
      dz2     :     0.009278  d :     0.080602
      dxz     :     0.019730
      dyz     :     0.023243
      dx2y2   :     0.008931
      dxy     :     0.019421
 10 H s       :     0.909039  s :     0.909039
      pz      :     0.018893  p :     0.060328
      px      :     0.020150
      py      :     0.021284
 11 H s       :     0.904798  s :     0.904798
      pz      :     0.014946  p :     0.061056
      px      :     0.030031
      py      :     0.016079
 12 C s       :     2.839018  s :     2.839018
      pz      :     1.040730  p :     3.151412
      px      :     1.072905
      py      :     1.037777
      dz2     :     0.006027  d :     0.070224
      dxz     :     0.018563
      dyz     :     0.022695
      dx2y2   :     0.007297
      dxy     :     0.015642
 13 H s       :     0.908091  s :     0.908091
      pz      :     0.021342  p :     0.065556
      px      :     0.019534
      py      :     0.024680
 14 H s       :     0.907924  s :     0.907924
      pz      :     0.017103  p :     0.064274
      px      :     0.030351
      py      :     0.016820
 15 H s       :     0.907146  s :     0.907146
      pz      :     0.030268  p :     0.072431
      px      :     0.022168
      py      :     0.019995
 16 S s       :     5.514803  s :     5.514803
      pz      :     3.632748  p :     9.952418
      px      :     3.251093
      py      :     3.068577
      dz2     :     0.015165  d :     0.130655
      dxz     :     0.015659
      dyz     :     0.020990
      dx2y2   :     0.052870
      dxy     :     0.025970
 17 C s       :     2.930912  s :     2.930912
      pz      :     1.064572  p :     3.175315
      px      :     1.028516
      py      :     1.082227
      dz2     :     0.006078  d :     0.086109
      dxz     :     0.015346
      dyz     :     0.007294
      dx2y2   :     0.032242
      dxy     :     0.025149
 18 C s       :     2.848710  s :     2.848710
      pz      :     1.018087  p :     3.120550
      px      :     1.058972
      py      :     1.043491
      dz2     :     0.006829  d :     0.094689
      dxz     :     0.006429
      dyz     :     0.014429
      dx2y2   :     0.032443
      dxy     :     0.034559
 19 C s       :     2.852407  s :     2.852407
      pz      :     0.965194  p :     3.077777
      px      :     1.063682
      py      :     1.048901
      dz2     :     0.008562  d :     0.113777
      dxz     :     0.019259
      dyz     :     0.012445
      dx2y2   :     0.035684
      dxy     :     0.037828
 20 C s       :     2.916263  s :     2.916263
      pz      :     1.120129  p :     3.172421
      px      :     1.075119
      py      :     0.977173
      dz2     :     0.007626  d :     0.101917
      dxz     :     0.015865
      dyz     :     0.009482
      dx2y2   :     0.037936
      dxy     :     0.031009
 21 H s       :     0.903568  s :     0.903568
      pz      :     0.021178  p :     0.082705
      px      :     0.046245
      py      :     0.015282
 22 C s       :     2.799197  s :     2.799197
      pz      :     1.048988  p :     3.130482
      px      :     1.055169
      py      :     1.026324
      dz2     :     0.020929  d :     0.101066
      dxz     :     0.011534
      dyz     :     0.027662
      dx2y2   :     0.019418
      dxy     :     0.021522
 23 H s       :     0.900723  s :     0.900723
      pz      :     0.028699  p :     0.065419
      px      :     0.014895
      py      :     0.021824
 24 H s       :     0.907100  s :     0.907100
      pz      :     0.018406  p :     0.075019
      px      :     0.039321
      py      :     0.017292
 25 C s       :     2.819555  s :     2.819555
      pz      :     1.033163  p :     3.122132
      px      :     1.060799
      py      :     1.028171
      dz2     :     0.023688  d :     0.093504
      dxz     :     0.007380
      dyz     :     0.026232
      dx2y2   :     0.016993
      dxy     :     0.019210
 26 H s       :     0.908216  s :     0.908216
      pz      :     0.031056  p :     0.065470
      px      :     0.014412
      py      :     0.020002
 27 H s       :     0.904619  s :     0.904619
      pz      :     0.015804  p :     0.073397
      px      :     0.039628
      py      :     0.017965
 28 C s       :     2.830896  s :     2.830896
      pz      :     1.059746  p :     3.158423
      px      :     1.060415
      py      :     1.038262
      dz2     :     0.013532  d :     0.071041
      dxz     :     0.007542
      dyz     :     0.020165
      dx2y2   :     0.016137
      dxy     :     0.013665
 29 H s       :     0.904962  s :     0.904962
      pz      :     0.034865  p :     0.070201
      px      :     0.014116
      py      :     0.021220
 30 H s       :     0.910773  s :     0.910773
      pz      :     0.024278  p :     0.058966
      px      :     0.014116
      py      :     0.020572
 31 H s       :     0.912123  s :     0.912123
      pz      :     0.018236  p :     0.073928
      px      :     0.038688
      py      :     0.017004
 32 H s       :     0.899870  s :     0.899870
      pz      :     0.015599  p :     0.074286
      px      :     0.036824
      py      :     0.021863
 33 H s       :     0.893305  s :     0.893305
      pz      :     0.015706  p :     0.068829
      px      :     0.015745
      py      :     0.037378


                      *****************************
                      * MAYER POPULATION ANALYSIS *
                      *****************************

  NA   - Mulliken gross atomic population
  ZA   - Total nuclear charge
  QA   - Mulliken gross atomic charge
  VA   - Mayer's total valence
  BVA  - Mayer's bonded valence
  FA   - Mayer's free valence

  ATOM       NA         ZA         QA         VA         BVA        FA
  0 S     15.8782    16.0000     0.1218     2.4721     2.4721     0.0000
  1 C      6.1169     6.0000    -0.1169     3.8496     3.8496     0.0000
  2 C      6.0737     6.0000    -0.0737     3.9919     3.9919     0.0000
  3 C      5.9603     6.0000     0.0397     3.9197     3.9197     0.0000
  4 C      6.1805     6.0000    -0.1805     3.8735     3.8735     0.0000
  5 H      0.9972     1.0000     0.0028     1.0016     1.0016     0.0000
  6 C      6.0018     6.0000    -0.0018     3.9622     3.9622    -0.0000
  7 H      0.9685     1.0000     0.0315     0.9865     0.9865    -0.0000
  8 H      0.9686     1.0000     0.0314     0.9886     0.9886    -0.0000
  9 C      6.0880     6.0000    -0.0880     4.0397     4.0397     0.0000
 10 H      0.9558     1.0000     0.0442     0.9769     0.9769     0.0000
 11 H      0.9448     1.0000     0.0552     0.9760     0.9760     0.0000
 12 C      6.0368     6.0000    -0.0368     4.0000     4.0000    -0.0000
 13 H      0.9643     1.0000     0.0357     0.9917     0.9917    -0.0000
 14 H      0.9635     1.0000     0.0365     0.9910     0.9910    -0.0000
 15 H      0.9698     1.0000     0.0302     0.9848     0.9848    -0.0000
 16 S     15.8937    16.0000     0.1063     2.4695     2.4695     0.0000
 17 C      6.0799     6.0000    -0.0799     3.8198     3.8198    -0.0000
 18 C      6.0109     6.0000    -0.0109     3.9806     3.9806     0.0000
 19 C      6.0136     6.0000    -0.0136     4.0176     4.0176    -0.0000
 20 C      6.1702     6.0000    -0.1702     3.8753     3.8753     0.0000
 21 H      1.0201     1.0000    -0.0201     1.0001     1.0001     0.0000
 22 C      5.8914     6.0000     0.1086     3.9662     3.9662     0.0000
 23 H      0.9818     1.0000     0.0182     0.9903     0.9903     0.0000
 24 H      1.0174     1.0000    -0.0174     0.9959     0.9959     0.0000
 25 C      6.0643     6.0000    -0.0643     4.1014     4.1014    -0.0000
 26 H      0.9704     1.0000     0.0296     0.9816     0.9816    -0.0000
 27 H      0.9753     1.0000     0.0247     0.9832     0.9832     0.0000
 28 C      6.0267     6.0000    -0.0267     4.0076     4.0076    -0.0000
 29 H      0.9609     1.0000     0.0391     0.9871     0.9871    -0.0000
 30 H      0.9779     1.0000     0.0221     0.9875     0.9875    -0.0000
 31 H      0.9871     1.0000     0.0129     0.9912     0.9912     0.0000
 32 H      0.9575     1.0000     0.0425     1.0053     1.0053    -0.0000
 33 H      0.9323     1.0000     0.0677     0.9911     0.9911     0.0000

  Mayer bond orders larger than 0.100000
B(  0-S ,  1-C ) :   1.1474 B(  0-S ,  4-C ) :   1.1369 B(  1-C ,  2-C ) :   1.6177 
B(  1-C , 32-H ) :   0.9608 B(  2-C ,  3-C ) :   1.2304 B(  2-C ,  6-C ) :   1.0172 
B(  3-C ,  4-C ) :   1.6087 B(  3-C ,  5-H ) :   0.9949 B(  4-C , 20-C ) :   0.9993 
B(  6-C ,  7-H ) :   0.9397 B(  6-C ,  8-H ) :   0.9406 B(  6-C ,  9-C ) :   1.0622 
B(  9-C , 10-H ) :   0.9532 B(  9-C , 11-H ) :   0.9547 B(  9-C , 12-C ) :   1.0676 
B( 12-C , 13-H ) :   0.9752 B( 12-C , 14-H ) :   0.9760 B( 12-C , 15-H ) :   0.9737 
B( 16-S , 17-C ) :   1.1663 B( 16-S , 20-C ) :   1.1324 B( 17-C , 18-C ) :   1.6133 
B( 17-C , 33-H ) :   0.9569 B( 18-C , 19-C ) :   1.2281 B( 18-C , 21-H ) :   1.0025 
B( 19-C , 20-C ) :   1.6032 B( 19-C , 22-C ) :   1.0677 B( 22-C , 23-H ) :   0.9114 
B( 22-C , 24-H ) :   0.9252 B( 22-C , 25-C ) :   1.0765 B( 25-C , 26-H ) :   0.9546 
B( 25-C , 27-H ) :   0.9484 B( 25-C , 28-C ) :   1.0863 B( 28-C , 29-H ) :   0.9747 
B( 28-C , 30-H ) :   0.9713 B( 28-C , 31-H ) :   0.9765 

-------
TIMINGS
-------

Total SCF time: 0 days 0 hours 0 min 32 sec 

Total time                  ....      32.310 sec
Sum of individual times     ....      31.206 sec  ( 96.6%)

Fock matrix formation       ....      29.116 sec  ( 90.1%)
  XC integration            ....       1.947 sec  (  6.7% of F)
    Basis function eval.    ....       0.234 sec  ( 12.0% of XC)
    Density eval.           ....       0.179 sec  (  9.2% of XC)
    XC-Functional eval.     ....       0.193 sec  (  9.9% of XC)
    XC-Potential eval.      ....       0.207 sec  ( 10.6% of XC)
Diagonalization             ....       0.157 sec  (  0.5%)
Density matrix formation    ....       0.026 sec  (  0.1%)
Population analysis         ....       0.061 sec  (  0.2%)
Initial guess               ....       0.228 sec  (  0.7%)
Orbital Transformation      ....       0.000 sec  (  0.0%)
Orbital Orthonormalization  ....       0.000 sec  (  0.0%)
DIIS solution               ....       0.157 sec  (  0.5%)
SOSCF solution              ....       0.219 sec  (  0.7%)
Grid generation             ....       1.240 sec  (  3.8%)


-------------------------------------------------------------------------------
                          DFT DISPERSION CORRECTION                            
                                                                               
                              DFTD3 V3.1  Rev 1                                
                              USING zero damping                               
-------------------------------------------------------------------------------
The omegaB97X-D3 functional is recognized. Fit by Chai et al.
Active option DFTDOPT                   ...         3   

molecular C6(AA) [au] = 14186.568859 


            DFT-D V3
 parameters
 s6 scaling factor         :     1.0000 
 rs6 scaling factor        :     1.2810 
 s8 scaling factor         :     1.0000 
 rs8 scaling factor        :     1.0940 
 Damping factor alpha6     :    14.0000 
 Damping factor alpha8     :    16.0000 
 ad hoc parameters k1-k3   :    16.0000     1.3333    -4.0000 

 Edisp/kcal,au: -8.755716202539  -0.013953120440 
 E6   /kcal   :  -3.959181543 
 E8   /kcal   :  -4.796534660 
 % E8         :  54.781751132 

-------------------------   ----------------
Dispersion correction           -0.013953120
-------------------------   ----------------


-------------------------   --------------------
FINAL SINGLE POINT ENERGY     -1339.871102001700
-------------------------   --------------------


                            ***************************************
                            *     ORCA property calculations      *
                            ***************************************

                                    ---------------------
                                    Active property flags
                                    ---------------------
   (+) Dipole Moment


------------------------------------------------------------------------------
                       ORCA ELECTRIC PROPERTIES CALCULATION
------------------------------------------------------------------------------

Dipole Moment Calculation                       ... on
Quadrupole Moment Calculation                   ... off
Polarizability Calculation                      ... off
GBWName                                         ... config_4549.gbw
Electron density file                           ... config_4549.scfp
The origin for moment calculation is the CENTER OF MASS  = (50.455547,  7.771261 144.910175)

-------------
DIPOLE MOMENT
-------------
                                X             Y             Z
Electronic contribution:      1.96327     -21.16905     -12.46690
Nuclear contribution   :     -2.10843      21.54940      12.94334
                        -----------------------------------------
Total Dipole Moment    :     -0.14516       0.38035       0.47644
                        -----------------------------------------
Magnitude (a.u.)       :      0.62669
Magnitude (Debye)      :      1.59291



--------------------
Rotational spectrum 
--------------------
 
Rotational constants in cm-1:     0.017955     0.007822     0.006902 
Rotational constants in MHz :   538.286625   234.485476   206.930052 

 Dipole components along the rotational axes: 
x,y,z [a.u.] :     0.217384    -0.360228     0.464451 
x,y,z [Debye]:     0.552546    -0.915626     1.180541 

 

Timings for individual modules:

Sum of individual times         ...       33.615 sec (=   0.560 min)
GTO integral calculation        ...        0.918 sec (=   0.015 min)   2.7 %
SCF iterations                  ...       32.697 sec (=   0.545 min)  97.3 %
                             ****ORCA TERMINATED NORMALLY****
TOTAL RUN TIME: 0 days 0 hours 0 minutes 34 seconds 340 msec
