
                                 *****************
                                 * O   R   C   A *
                                 *****************

           --- An Ab Initio, DFT and Semiempirical electronic structure package ---

                  #######################################################
                  #                        -***-                        #
                  #          Department of theory and spectroscopy      #
                  #               Directorship: Frank Neese             #
                  #        Max Planck Institute fuer Kohlenforschung    #
                  #                Kaiser Wilhelm Platz 1               #
                  #                 D-45470 Muelheim/Ruhr               #
                  #                      Germany                        #
                  #                                                     #
                  #                  All rights reserved                #
                  #                        -***-                        #
                  #######################################################


                         Program Version 4.2.1 -  RELEASE  -


 With contributions from (in alphabetic order):
   Daniel Aravena         : Magnetic Suceptibility
   Michael Atanasov       : Ab Initio Ligand Field Theory (pilot matlab implementation)
   Alexander A. Auer      : GIAO ZORA, VPT2
   Ute Becker             : Parallelization
   Giovanni Bistoni       : ED, misc. LED, open-shell LED, HFLD
   Martin Brehm           : Molecular dynamics
   Dmytro Bykov           : SCF Hessian
   Vijay G. Chilkuri      : MRCI spin determinant printing, contributions to CSF-ICE
   Dipayan Datta          : RHF DLPNO-CCSD density
   Achintya Kumar Dutta   : EOM-CC, STEOM-CC
   Dmitry Ganyushin       : Spin-Orbit,Spin-Spin,Magnetic field MRCI
   Miquel Garcia          : C-PCM Hessian, Gaussian charge scheme
   Yang Guo               : DLPNO-NEVPT2, CIM, IAO-localization
   Andreas Hansen         : Spin unrestricted coupled pair/coupled cluster methods
   Benjamin Helmich-Paris : CASSCF linear response (MC-RPA)
   Lee Huntington         : MR-EOM, pCC
   Robert Izsak           : Overlap fitted RIJCOSX, COSX-SCS-MP3, EOM
   Christian Kollmar      : KDIIS, OOCD, Brueckner-CCSD(T), CCSD density
   Simone Kossmann        : Meta GGA functionals, TD-DFT gradient, OOMP2, MP2 Hessian
   Martin Krupicka        : AUTO-CI
   Lucas Lang             : DCDCAS
   Dagmar Lenk            : GEPOL surface, SMD
   Dimitrios Liakos       : Extrapolation schemes; Compound Job, initial MDCI parallelization
   Dimitrios Manganas     : Further ROCIS development; embedding schemes
   Dimitrios Pantazis     : SARC Basis sets
   Taras Petrenko         : DFT Hessian,TD-DFT gradient, ASA, ECA, R-Raman, ABS, FL, XAS/XES, NRVS
   Peter Pinski           : DLPNO-MP2, DLPNO-MP2 Gradient
   Christoph Reimann      : Effective Core Potentials
   Marius Retegan         : Local ZFS, SOC
   Christoph Riplinger    : Optimizer, TS searches, QM/MM, DLPNO-CCSD(T), (RO)-DLPNO pert. Triples
   Tobias Risthaus        : Range-separated hybrids, TD-DFT gradient, RPA, STAB
   Michael Roemelt        : Original ROCIS implementation
   Masaaki Saitow         : Open-shell DLPNO-CCSD energy and density
   Barbara Sandhoefer     : DKH picture change effects
   Avijit Sen             : IP-ROCIS
   Kantharuban Sivalingam : CASSCF convergence, NEVPT2, FIC-MRCI
   Bernardo de Souza      : ESD, SOC TD-DFT
   Georgi Stoychev        : AutoAux, RI-MP2 NMR
   Willem Van den Heuvel  : Paramagnetic NMR
   Boris Wezisla          : Elementary symmetry handling
   Frank Wennmohs         : Technical directorship


 We gratefully acknowledge several colleagues who have allowed us to
 interface, adapt or use parts of their codes:
   Stefan Grimme, W. Hujo, H. Kruse,             : VdW corrections, initial TS optimization,
                  C. Bannwarth                     DFT functionals, gCP, sTDA/sTD-DF
   Ed Valeev, F. Pavosevic, A. Kumar             : LibInt (2-el integral package), F12 methods
   Garnet Chan, S. Sharma, J. Yang, R. Olivares  : DMRG
   Ulf Ekstrom                                   : XCFun DFT Library
   Mihaly Kallay                                 : mrcc  (arbitrary order and MRCC methods)
   Andreas Klamt, Michael Diedenhofen            : otool_cosmo (COSMO solvation model)
   Jiri Pittner, Ondrej Demel                    : Mk-CCSD
   Frank Weinhold                                : gennbo (NPA and NBO analysis)
   Christopher J. Cramer and Donald G. Truhlar   : smd solvation model
   Lars Goerigk                                  : TD-DFT with DH, B97 family of functionals
   V. Asgeirsson, H. Jonsson                     : NEB implementation
   FAccTs GmbH                                   : IRC, NEB, NEB-TS, Multilevel, MM, QM/MM, CI optimization
   S Lehtola, MJT Oliveira, MAL Marques          : LibXC Library


 Your calculation uses the libint2 library for the computation of 2-el integrals
 For citations please refer to: http://libint.valeyev.net

 Your ORCA version has been built with support for libXC version: 4.2.3
 For citations please refer to: https://tddft.org/programs/libxc/

 This ORCA versions uses:
   CBLAS   interface :  Fast vector & matrix operations
   LAPACKE interface :  Fast linear algebra routines
   SCALAPACK package :  Parallel linear algebra routines


Your calculation utilizes the atom-pairwise dispersion correction
with the zero-damping scheme (D30)
Cite in your paper:
S.Grimme, J.Antony, S.Ehrlich and H.Krieg, J.Chem.Phys., 132, (2010), 154104 
   

XCFun DFT library Copyright 2009-2010 Ulf Ekstrom and contributors.
See http://admol.org/xcfun for more information. This is free soft-
ware; see the source code for copying conditions. There is ABSOLUTELY
NO WARRANTY; not even for MERCHANTABILITY or FITNESS FOR A PARTICULAR
PURPOSE. For details see the documentation. Scientific users of this 
library should cite U. Ekstrom, L. Visscher, R. Bast, A. J. Thorvald-
sen and K. Ruud; J.Chem.Theor.Comp. 2010, DOI: 10.1021/ct100117s
XCFun Version 0.99 
----- Orbital basis set information -----
Your calculation utilizes the basis: def2-SVP
   F. Weigend and R. Ahlrichs, Phys. Chem. Chem. Phys. 7, 3297 (2005).

================================================================================
                                        WARNINGS
                       Please study these warnings very carefully!
================================================================================


INFO   : the flag for use of LIBINT has been found!

================================================================================
                                       INPUT FILE
================================================================================
NAME = config_2384.inp
|  1> ! wB97X-D3 SP def2-SVP
|  2> %pal
|  3> nprocs 16
|  4> end
|  5> 
|  6> * xyz 0 1
|  7> S 	 53.0297 	 15.5482 	 83.9817 	 
|  8> C 	 52.4482 	 15.0184 	 85.5517 	 
|  9> C 	 51.0386 	 15.1217 	 85.6375 	 
| 10> C 	 50.4545 	 15.5509 	 84.398 	 
| 11> C 	 51.4119 	 15.8592 	 83.4788 	 
| 12> H 	 49.3992 	 15.6141 	 84.1166 	 
| 13> C 	 50.2576 	 14.7317 	 86.943 	 
| 14> H 	 49.6563 	 15.7128 	 87.0319 	 
| 15> H 	 50.9287 	 14.5335 	 87.8182 	 
| 16> C 	 49.2016 	 13.6626 	 86.768 	 
| 17> H 	 48.5291 	 13.8713 	 85.9352 	 
| 18> H 	 49.7427 	 12.7446 	 86.6263 	 
| 19> C 	 48.3051 	 13.5591 	 88.0633 	 
| 20> H 	 47.9153 	 14.5057 	 88.4007 	 
| 21> H 	 47.6264 	 12.6255 	 88.0064 	 
| 22> H 	 48.9162 	 13.1018 	 88.7949 	 
| 23> S 	 51.9865 	 15.9165 	 80.674 	 
| 24> C 	 51.2889 	 17.2398 	 79.7079 	 
| 25> C 	 50.6484 	 18.1233 	 80.5251 	 
| 26> C 	 50.6881 	 17.872 	 81.9825 	 
| 27> C 	 51.2234 	 16.5814 	 82.2315 	 
| 28> H 	 50.1883 	 19.0426 	 80.0669 	 
| 29> C 	 50.2976 	 18.9391 	 82.9531 	 
| 30> H 	 51.0604 	 19.7285 	 82.8057 	 
| 31> H 	 50.5621 	 18.5206 	 83.9219 	 
| 32> C 	 48.9015 	 19.4403 	 83.0617 	 
| 33> H 	 48.2739 	 18.568 	 83.2787 	 
| 34> H 	 48.608 	 19.8863 	 82.1617 	 
| 35> C 	 48.6665 	 20.4971 	 84.1785 	 
| 36> H 	 49.0038 	 21.5215 	 83.9393 	 
| 37> H 	 48.9765 	 20.051 	 85.1062 	 
| 38> H 	 47.5841 	 20.716 	 84.2247 	 
| 39> H 	 53.1089 	 14.5636 	 86.3718 	 
| 40> H 	 51.339 	 17.2914 	 78.6238 	 
| 41> *
| 42> 
| 43>                          ****END OF INPUT****
================================================================================

                       ****************************
                       * Single Point Calculation *
                       ****************************

---------------------------------
CARTESIAN COORDINATES (ANGSTROEM)
---------------------------------
  S     53.029700   15.548200   83.981700
  C     52.448200   15.018400   85.551700
  C     51.038600   15.121700   85.637500
  C     50.454500   15.550900   84.398000
  C     51.411900   15.859200   83.478800
  H     49.399200   15.614100   84.116600
  C     50.257600   14.731700   86.943000
  H     49.656300   15.712800   87.031900
  H     50.928700   14.533500   87.818200
  C     49.201600   13.662600   86.768000
  H     48.529100   13.871300   85.935200
  H     49.742700   12.744600   86.626300
  C     48.305100   13.559100   88.063300
  H     47.915300   14.505700   88.400700
  H     47.626400   12.625500   88.006400
  H     48.916200   13.101800   88.794900
  S     51.986500   15.916500   80.674000
  C     51.288900   17.239800   79.707900
  C     50.648400   18.123300   80.525100
  C     50.688100   17.872000   81.982500
  C     51.223400   16.581400   82.231500
  H     50.188300   19.042600   80.066900
  C     50.297600   18.939100   82.953100
  H     51.060400   19.728500   82.805700
  H     50.562100   18.520600   83.921900
  C     48.901500   19.440300   83.061700
  H     48.273900   18.568000   83.278700
  H     48.608000   19.886300   82.161700
  C     48.666500   20.497100   84.178500
  H     49.003800   21.521500   83.939300
  H     48.976500   20.051000   85.106200
  H     47.584100   20.716000   84.224700
  H     53.108900   14.563600   86.371800
  H     51.339000   17.291400   78.623800

----------------------------
CARTESIAN COORDINATES (A.U.)
----------------------------
  NO LB      ZA    FRAG     MASS         X           Y           Z
   0 S    16.0000    0    32.060  100.211610   29.381840  158.702413
   1 C     6.0000    0    12.011   99.112734   28.380663  161.669283
   2 C     6.0000    0    12.011   96.448976   28.575872  161.831422
   3 C     6.0000    0    12.011   95.345187   29.386942  159.489106
   4 C     6.0000    0    12.011   97.154411   29.969545  157.752070
   5 H     1.0000    0     1.008   93.350959   29.506373  158.957337
   6 C     6.0000    0    12.011   94.973100   27.838878  164.298459
   7 H     1.0000    0     1.008   93.836808   29.692889  164.466456
   8 H     1.0000    0     1.008   96.241295   27.464335  165.952348
   9 C     6.0000    0    12.011   92.977549   25.818572  163.967757
  10 H     1.0000    0     1.008   91.706709   26.212958  162.393993
  11 H     1.0000    0     1.008   94.000080   24.083804  163.699983
  12 C     6.0000    0    12.011   91.283410   25.622986  166.415519
  13 H     1.0000    0     1.008   90.546795   27.411800  167.053113
  14 H     1.0000    0     1.008   90.000853   23.858737  166.307994
  15 H     1.0000    0     1.008   92.438222   24.758814  167.798043
  16 S    16.0000    0    32.060   98.240248   30.077826  152.451766
  17 C     6.0000    0    12.011   96.921975   32.578501  150.626102
  18 C     6.0000    0    12.011   95.711605   34.248074  152.170386
  19 C     6.0000    0    12.011   95.786627   33.773185  154.924473
  20 C     6.0000    0    12.011   96.798198   31.334305  155.395015
  21 H     1.0000    0     1.008   94.842142   35.985299  151.304513
  22 C     6.0000    0    12.011   95.048689   35.789712  156.758641
  23 H     1.0000    0     1.008   96.490172   37.281462  156.480095
  24 H     1.0000    0     1.008   95.548522   34.998862  158.589408
  25 C     6.0000    0    12.011   92.410443   36.736843  156.963865
  26 H     1.0000    0     1.008   91.224450   35.088435  157.373936
  27 H     1.0000    0     1.008   91.855808   37.579661  155.263112
  28 C     6.0000    0    12.011   91.966357   38.733906  159.074311
  29 H     1.0000    0     1.008   92.603762   40.669741  158.622289
  30 H     1.0000    0     1.008   92.552172   37.890899  160.827410
  31 H     1.0000    0     1.008   89.920917   39.147567  159.161617
  32 H     1.0000    0     1.008  100.361276   27.521216  163.219048
  33 H     1.0000    0     1.008   97.016650   32.676010  148.577450

--------------------------------
INTERNAL COORDINATES (ANGSTROEM)
--------------------------------
 S      0   0   0     0.000000000000     0.00000000     0.00000000
 C      1   0   0     1.756055320883     0.00000000     0.00000000
 C      2   1   0     1.415981881946   111.21149762     0.00000000
 C      3   2   1     1.435878024068   111.99066980     3.58464913
 C      4   3   2     1.362568269849   111.35529922   354.93297177
 H      4   3   2     1.094001046617   129.17632632   172.32030573
 C      3   2   1     1.570474848573   121.82417122   180.88118097
 H      7   3   2     1.154132622362    96.43192996   128.55707432
 H      7   3   2     1.120550529874   113.28805200     9.26933633
 C      7   3   2     1.512856837245   115.24296894   237.63267165
 H     10   7   3     1.090581395403   112.55232945   310.20304698
 H     10   7   3     1.074984697566   105.50806090    72.51631104
 C     10   7   3     1.578678748194   110.35338572   191.01113432
 H     13  10   7     1.077884205284   113.86739467    50.52156857
 H     13  10   7     1.155629810969   110.24781141   190.03417380
 H     13  10   7     1.057263004176   105.53844179   287.45913163
 S      5   4   3     2.863625584814   143.73275428   149.81988523
 C     17   5   4     1.780763280169   117.88120774    76.93848405
 C     18  17   5     1.363315201998   109.90245519     5.27633978
 C     19  18  17     1.479439941329   117.89190448     2.20938368
 C     20  19  18     1.419223537713   109.71993433   349.93874065
 H     19  18  17     1.125500661928   118.51259274   177.54516277
 C     20  19  18     1.494408585361   120.76434693   165.58406459
 H     23  20  19     1.107584290246   104.03581322   295.41274589
 H     23  20  19     1.087968721977   103.89525018   187.89486568
 C     23  20  19     1.487309856755   122.23101764    67.06038247
 H     26  23  20     1.096301988505   106.48032840    57.03989155
 H     26  23  20     1.046450309379   110.12665967   297.31659107
 C     26  23  20     1.555407817905   115.03723411   176.86102512
 H     29  26  23     1.104709595324   115.36876804    77.92564760
 H     29  26  23     1.075049998837   107.10322456   303.02555052
 H     29  26  23     1.105278883359   108.21193435   185.44051583
 H      2   1   3     1.147140592953   124.61466961   175.15315436
 H     18  17   5     1.086483032541   123.95616013   187.85080715

---------------------------
INTERNAL COORDINATES (A.U.)
---------------------------
 S      0   0   0     0.000000000000     0.00000000     0.00000000
 C      1   0   0     3.318463632483     0.00000000     0.00000000
 C      2   1   0     2.675817967473   111.21149762     0.00000000
 C      3   2   1     2.713416227204   111.99066980     3.58464913
 C      4   3   2     2.574880868786   111.35529922   354.93297177
 H      4   3   2     2.067362368330   129.17632632   172.32030573
 C      3   2   1     2.967767364014   121.82417122   180.88118097
 H      7   3   2     2.180994578488    96.43192996   128.55707432
 H      7   3   2     2.117533620681   113.28805200     9.26933633
 C      7   3   2     2.858885102224   115.24296894   237.63267165
 H     10   7   3     2.060900164062   112.55232945   310.20304698
 H     10   7   3     2.031426676555   105.50806090    72.51631104
 C     10   7   3     2.983270487529   110.35338572   191.01113432
 H     13  10   7     2.036905952065   113.86739467    50.52156857
 H     13  10   7     2.183823854926   110.24781141   190.03417380
 H     13  10   7     1.997937529420   105.53844179   287.45913163
 S      5   4   3     5.411468105388   143.73275428   149.81988523
 C     17   5   4     3.365154908864   117.88120774    76.93848405
 C     18  17   5     2.576292365989   109.90245519     5.27633978
 C     19  18  17     2.795736320697   117.89190448     2.20938368
 C     20  19  18     2.681943809093   109.71993433   349.93874065
 H     19  18  17     2.126888014591   118.51259274   177.54516277
 C     20  19  18     2.824022958513   120.76434693   165.58406459
 H     23  20  19     2.093030978799   104.03581322   295.41274589
 H     23  20  19     2.055962926809   103.89525018   187.89486568
 C     23  20  19     2.810608305548   122.23101764    67.06038247
 H     26  23  20     2.071710518348   106.48032840    57.03989155
 H     26  23  20     1.977504497484   110.12665967   297.31659107
 C     26  23  20     2.939294802401   115.03723411   176.86102512
 H     29  26  23     2.087598592677   115.36876804    77.92564760
 H     29  26  23     2.031550078075   107.10322456   303.02555052
 H     29  26  23     2.088674391155   108.21193435   185.44051583
 H      2   1   3     2.167781557785   124.61466961   175.15315436
 H     18  17   5     2.053155380655   123.95616013   187.85080715

---------------------
BASIS SET INFORMATION
---------------------
There are 3 groups of distinct atoms

 Group   1 Type S   : 10s7p1d contracted to 4s3p1d pattern {5311/511/1}
 Group   2 Type C   : 7s4p1d contracted to 3s2p1d pattern {511/31/1}
 Group   3 Type H   : 4s1p contracted to 2s1p pattern {31/1}

Atom   0S    basis set group =>   1
Atom   1C    basis set group =>   2
Atom   2C    basis set group =>   2
Atom   3C    basis set group =>   2
Atom   4C    basis set group =>   2
Atom   5H    basis set group =>   3
Atom   6C    basis set group =>   2
Atom   7H    basis set group =>   3
Atom   8H    basis set group =>   3
Atom   9C    basis set group =>   2
Atom  10H    basis set group =>   3
Atom  11H    basis set group =>   3
Atom  12C    basis set group =>   2
Atom  13H    basis set group =>   3
Atom  14H    basis set group =>   3
Atom  15H    basis set group =>   3
Atom  16S    basis set group =>   1
Atom  17C    basis set group =>   2
Atom  18C    basis set group =>   2
Atom  19C    basis set group =>   2
Atom  20C    basis set group =>   2
Atom  21H    basis set group =>   3
Atom  22C    basis set group =>   2
Atom  23H    basis set group =>   3
Atom  24H    basis set group =>   3
Atom  25C    basis set group =>   2
Atom  26H    basis set group =>   3
Atom  27H    basis set group =>   3
Atom  28C    basis set group =>   2
Atom  29H    basis set group =>   3
Atom  30H    basis set group =>   3
Atom  31H    basis set group =>   3
Atom  32H    basis set group =>   3
Atom  33H    basis set group =>   3


           ************************************************************
           *        Program running with 16 parallel MPI-processes    *
           *              working on a common directory               *
           ************************************************************
------------------------------------------------------------------------------
                           ORCA GTO INTEGRAL CALCULATION
------------------------------------------------------------------------------

                         BASIS SET STATISTICS AND STARTUP INFO

 # of primitive gaussian shells          ...  294
 # of primitive gaussian functions       ...  534
 # of contracted shells                  ...  154
 # of contracted basis functions         ...  322
 Highest angular momentum                ...    2
 Maximum contraction depth               ...    5
 Integral package used                   ... LIBINT
 Integral threshhold            Thresh   ...  1.000e-10
 Primitive cut-off              TCut     ...  1.000e-11


------------------------------ INTEGRAL EVALUATION ----------------------------


 * One electron integrals 
 Pre-screening matrix                    ... done
 Shell pair data                         ... done (   0.003 sec)



           ************************************************************
           *        Program running with 16 parallel MPI-processes    *
           *              working on a common directory               *
           ************************************************************
-------------------------------------------------------------------------------
                                 ORCA SCF
-------------------------------------------------------------------------------

------------
SCF SETTINGS
------------
Hamiltonian:
 Density Functional     Method          .... DFT(GTOs)
 Exchange Functional    Exchange        .... WB97X-D3
 Correlation Functional Correlation     .... WB97X-D3
 Gradients option       PostSCFGGA      .... off
 Hybrid DFT is turned on
   Fraction HF Exchange ScalHFX         ....  0.195728
   Scaling of DF-GGA-X  ScalDFX         ....  0.000000
   Scaling of DF-GGA-C  ScalDFC         ....  1.000000
   Scaling of DF-LDA-C  ScalLDAC        ....  1.000000
   Perturbative correction              ....  0.000000
   Density functional embedding theory  .... OFF
 Long-range corrected/Screened/Range-Separated Hybrid DFT is turned on
   Amount of maximum screened exact exchange              ....  0.804272
   Range separation parameter mu (erf(mu*r12)/r12)        ....  0.250000


General Settings:
 Integral files         IntName         .... config_2384
 Hartree-Fock type      HFTyp           .... RHF
 Total Charge           Charge          ....    0
 Multiplicity           Mult            ....    1
 Number of Electrons    NEL             ....  134
 Basis Dimension        Dim             ....  322
 Nuclear Repulsion      ENuc            ....   1258.3825037819 Eh

Convergence Acceleration:
 DIIS                   CNVDIIS         .... on
   Start iteration      DIISMaxIt       ....    12
   Startup error        DIISStart       ....  0.200000
   # of expansion vecs  DIISMaxEq       ....     5
   Bias factor          DIISBfac        ....   1.050
   Max. coefficient     DIISMaxC        ....  10.000
 Newton-Raphson         CNVNR           .... off
 SOSCF                  CNVSOSCF        .... on
   Start iteration      SOSCFMaxIt      ....   150
   Startup grad/error   SOSCFStart      ....  0.003300
 Level Shifting         CNVShift        .... on
   Level shift para.    LevelShift      ....    0.2500
   Turn off err/grad.   ShiftErr        ....    0.0010
 Zerner damping         CNVZerner       .... off
 Static damping         CNVDamp         .... on
   Fraction old density DampFac         ....    0.7000
   Max. Damping (<1)    DampMax         ....    0.9800
   Min. Damping (>=0)   DampMin         ....    0.0000
   Turn off err/grad.   DampErr         ....    0.1000
 Fernandez-Rico         CNVRico         .... off

SCF Procedure:
 Maximum # iterations   MaxIter         ....   125
 SCF integral mode      SCFMode         .... Direct
   Integral package                     .... LIBINT
 Reset frequency        DirectResetFreq ....    20
 Integral Threshold     Thresh          ....  1.000e-10 Eh
 Primitive CutOff       TCut            ....  1.000e-11 Eh

Convergence Tolerance:
 Convergence Check Mode ConvCheckMode   .... Total+1el-Energy
 Convergence forced     ConvForced      .... 0
 Energy Change          TolE            ....  1.000e-06 Eh
 1-El. energy change                    ....  1.000e-03 Eh
 Orbital Gradient       TolG            ....  5.000e-05
 Orbital Rotation angle TolX            ....  5.000e-05
 DIIS Error             TolErr          ....  1.000e-06


Diagonalization of the overlap matrix:
Smallest eigenvalue                        ... 7.892e-04
Time for diagonalization                   ...    0.016 sec
Threshold for overlap eigenvalues          ... 1.000e-08
Number of eigenvalues below threshold      ... 0
Time for construction of square roots      ...    0.028 sec
Total time needed                          ...    0.044 sec

-------------------
DFT GRID GENERATION
-------------------

General Integration Accuracy     IntAcc      ...  4.340
Radial Grid Type                 RadialGrid  ... Gauss-Chebyshev
Angular Grid (max. acc.)         AngularGrid ... Lebedev-110
Angular grid pruning method      GridPruning ... 3 (G Style)
Weight generation scheme         WeightScheme... Becke
Basis function cutoff            BFCut       ...    1.0000e-10
Integration weight cutoff        WCut        ...    1.0000e-14
Grids for H and He will be reduced by one unit

# of grid points (after initial pruning)     ...  41088 (   0.0 sec)
# of grid points (after weights+screening)   ...  37064 (   0.0 sec)
nearest neighbour list constructed           ...    0.0 sec
Grid point re-assignment to atoms done       ...    0.0 sec
Grid point division into batches done        ...    0.0 sec
Reduced shell lists constructed in    0.1 sec

Total number of grid points                  ...    37064
Total number of batches                      ...      599
Average number of points per batch           ...       61
Average number of grid points per atom       ...     1090
Average number of shells per batch           ...    74.38 (48.30%)
Average number of basis functions per batch  ...   147.21 (45.72%)
Average number of large shells per batch     ...    46.08 (61.94%)
Average number of large basis fcns per batch ...    95.51 (64.88%)
Maximum spatial batch extension              ...  15.35, 19.24, 13.46 au
Average spatial batch extension              ...   0.22,  0.24,  0.21 au

Time for grid setup =    0.219 sec

------------------------------
INITIAL GUESS: MODEL POTENTIAL
------------------------------
Loading Hartree-Fock densities                     ... done
Calculating cut-offs                               ... done
Setting up the integral package                    ... done
Initializing the effective Hamiltonian             ... done
Starting the Coulomb interaction                   ... done (   0.0 sec)
Reading the grid                                   ... done
Mapping shells                                     ... done
Starting the XC term evaluation                    ... done (   0.0 sec)
  promolecular density results
     # of electrons  =    133.993176673
     EX              =   -126.636563982
     EC              =     -4.603713337
     EX+EC           =   -131.240277319
Transforming the Hamiltonian                       ... done (   0.0 sec)
Diagonalizing the Hamiltonian                      ... done (   0.0 sec)
Back transforming the eigenvectors                 ... done (   0.0 sec)
Now organizing SCF variables                       ... done
                      ------------------
                      INITIAL GUESS DONE (   0.4 sec)
                      ------------------
--------------
SCF ITERATIONS
--------------
ITER       Energy         Delta-E        Max-DP      RMS-DP      [F,P]     Damp
               ***  Starting incremental Fock matrix formation  ***
  0  -1339.4308429378   0.000000000000 0.06415210  0.00153032  0.1619161 0.7000
  1  -1339.6071745165  -0.176331578722 0.04322994  0.00111802  0.0980481 0.7000
                               ***Turning on DIIS***
  2  -1339.6929776814  -0.085803164897 0.08518850  0.00211254  0.0509537 0.0000
  3  -1339.8227535804  -0.129775899040 0.04026854  0.00095991  0.0374642 0.0000
  4  -1339.8504667603  -0.027713179931 0.00731485  0.00018977  0.0074895 0.0000
                      *** Initiating the SOSCF procedure ***
                           *** Shutting down DIIS ***
                      *** Re-Reading the Fockian *** 
                      *** Removing any level shift *** 
ITER      Energy       Delta-E        Grad      Rot      Max-DP    RMS-DP
  5  -1339.85134861  -0.0008818480  0.001409  0.001409  0.003436  0.000099
               *** Restarting incremental Fock matrix formation ***
  6  -1339.85154167  -0.0001930636  0.001187  0.003359  0.002636  0.000064
  7  -1339.85160923  -0.0000675564  0.000650  0.004173  0.003554  0.000065
  8  -1339.85162753  -0.0000183042  0.000277  0.000638  0.000891  0.000019
  9  -1339.85163210  -0.0000045692  0.000146  0.000336  0.000283  0.000009
                 **** Energy Check signals convergence ****
              ***Rediagonalizing the Fockian in SOSCF/NRSCF***

               *****************************************************
               *                     SUCCESS                       *
               *           SCF CONVERGED AFTER  10 CYCLES          *
               *****************************************************

Setting up the final grid:

General Integration Accuracy     IntAcc      ...  4.670
Radial Grid Type                 RadialGrid  ... Gauss-Chebyshev
Angular Grid (max. acc.)         AngularGrid ... Lebedev-302
Angular grid pruning method      GridPruning ... 3 (G Style)
Weight generation scheme         WeightScheme... Becke
Basis function cutoff            BFCut       ...    1.0000e-10
Integration weight cutoff        WCut        ...    1.0000e-14
Grids for H and He will be reduced by one unit

# of grid points (after initial pruning)     ... 161752 (   0.0 sec)
# of grid points (after weights+screening)   ... 143307 (   0.1 sec)
nearest neighbour list constructed           ...    0.0 sec
Grid point re-assignment to atoms done       ...    0.0 sec
Grid point division into batches done        ...    0.5 sec
Reduced shell lists constructed in    0.6 sec

Total number of grid points                  ...   143307
Total number of batches                      ...     2256
Average number of points per batch           ...       63
Average number of grid points per atom       ...     4215
Average number of shells per batch           ...    68.44 (44.44%)
Average number of basis functions per batch  ...   135.46 (42.07%)
Average number of large shells per batch     ...    41.67 (60.88%)
Average number of large basis fcns per batch ...    85.88 (63.40%)
Maximum spatial batch extension              ...  15.18, 15.47, 13.79 au
Average spatial batch extension              ...   0.14,  0.15,  0.14 au

Final grid set up in    1.1 sec
Final integration                            ... done (   0.3 sec)
Change in XC energy                          ...     0.008084123
Integrated number of electrons               ...   133.999793938
Previous integrated no of electrons          ...   134.002648006

----------------
TOTAL SCF ENERGY
----------------

Total Energy       :        -1339.84354835 Eh          -36458.99649 eV

Components:
Nuclear Repulsion  :         1258.38250378 Eh           34242.32877 eV
Electronic Energy  :        -2598.22605213 Eh          -70701.32526 eV
One Electron Energy:        -4333.52171589 Eh         -117921.12088 eV
Two Electron Energy:         1735.29566375 Eh           47219.79562 eV

Virial components:
Potential Energy   :        -2670.81303573 Eh          -72676.51750 eV
Kinetic Energy     :         1330.96948738 Eh           36217.52101 eV
Virial Ratio       :            2.00666737


DFT components:
N(Alpha)           :       66.999896968969 electrons
N(Beta)            :       66.999896968969 electrons
N(Total)           :      133.999793937938 electrons
E(XC)              :      -94.138227717777 Eh       
DFET-embed. en.    :        0.000000000000 Eh       

---------------
SCF CONVERGENCE
---------------

  Last Energy change         ...   -3.7256e-07  Tolerance :   1.0000e-06
  Last MAX-Density change    ...    1.6872e-04  Tolerance :   1.0000e-05
  Last RMS-Density change    ...    3.7478e-06  Tolerance :   1.0000e-06
  Last Orbital Gradient      ...    7.2518e-05  Tolerance :   5.0000e-05
  Last Orbital Rotation      ...    1.9347e-04  Tolerance :   5.0000e-05

             **** THE GBW FILE WAS UPDATED (config_2384.gbw) ****
             **** DENSITY FILE WAS UPDATED (config_2384.scfp) ****
             **** ENERGY FILE WAS UPDATED (config_2384.en.tmp) ****
             **** THE GBW FILE WAS UPDATED (config_2384.gbw) ****
             **** DENSITY FILE WAS UPDATED (config_2384.scfp) ****
----------------
ORBITAL ENERGIES
----------------

  NO   OCC          E(Eh)            E(eV) 
   0   2.0000     -88.966515     -2420.9020 
   1   2.0000     -88.960591     -2420.7408 
   2   2.0000     -10.336446      -281.2690 
   3   2.0000     -10.325743      -280.9778 
   4   2.0000     -10.321423      -280.8602 
   5   2.0000     -10.320819      -280.8438 
   6   2.0000     -10.313950      -280.6568 
   7   2.0000     -10.310788      -280.5708 
   8   2.0000     -10.305757      -280.4339 
   9   2.0000     -10.298651      -280.2405 
  10   2.0000     -10.298329      -280.2318 
  11   2.0000     -10.288770      -279.9717 
  12   2.0000     -10.288339      -279.9599 
  13   2.0000     -10.283895      -279.8390 
  14   2.0000     -10.283779      -279.8358 
  15   2.0000     -10.282965      -279.8137 
  16   2.0000      -8.081640      -219.9126 
  17   2.0000      -8.073647      -219.6951 
  18   2.0000      -6.040052      -164.3582 
  19   2.0000      -6.036103      -164.2507 
  20   2.0000      -6.032502      -164.1527 
  21   2.0000      -6.032453      -164.1514 
  22   2.0000      -6.028494      -164.0437 
  23   2.0000      -6.024030      -163.9222 
  24   2.0000      -1.002819       -27.2881 
  25   2.0000      -0.970792       -26.4166 
  26   2.0000      -0.913561       -24.8593 
  27   2.0000      -0.909544       -24.7499 
  28   2.0000      -0.865799       -23.5596 
  29   2.0000      -0.850637       -23.1470 
  30   2.0000      -0.842543       -22.9268 
  31   2.0000      -0.810054       -22.0427 
  32   2.0000      -0.782068       -21.2812 
  33   2.0000      -0.768638       -20.9157 
  34   2.0000      -0.708788       -19.2871 
  35   2.0000      -0.698598       -19.0098 
  36   2.0000      -0.688573       -18.7370 
  37   2.0000      -0.648795       -17.6546 
  38   2.0000      -0.640059       -17.4169 
  39   2.0000      -0.617702       -16.8085 
  40   2.0000      -0.597051       -16.2466 
  41   2.0000      -0.576178       -15.6786 
  42   2.0000      -0.574104       -15.6222 
  43   2.0000      -0.552850       -15.0438 
  44   2.0000      -0.529579       -14.4106 
  45   2.0000      -0.522740       -14.2245 
  46   2.0000      -0.513546       -13.9743 
  47   2.0000      -0.508282       -13.8311 
  48   2.0000      -0.501772       -13.6539 
  49   2.0000      -0.499930       -13.6038 
  50   2.0000      -0.494418       -13.4538 
  51   2.0000      -0.476354       -12.9623 
  52   2.0000      -0.469160       -12.7665 
  53   2.0000      -0.461940       -12.5700 
  54   2.0000      -0.458861       -12.4862 
  55   2.0000      -0.450012       -12.2455 
  56   2.0000      -0.446303       -12.1445 
  57   2.0000      -0.435784       -11.8583 
  58   2.0000      -0.427398       -11.6301 
  59   2.0000      -0.424718       -11.5572 
  60   2.0000      -0.419471       -11.4144 
  61   2.0000      -0.413000       -11.2383 
  62   2.0000      -0.408079       -11.1044 
  63   2.0000      -0.339958        -9.2507 
  64   2.0000      -0.332392        -9.0448 
  65   2.0000      -0.323818        -8.8115 
  66   2.0000      -0.294553        -8.0152 
  67   0.0000       0.030029         0.8171 
  68   0.0000       0.066069         1.7978 
  69   0.0000       0.104600         2.8463 
  70   0.0000       0.119067         3.2400 
  71   0.0000       0.125038         3.4025 
  72   0.0000       0.133245         3.6258 
  73   0.0000       0.149334         4.0636 
  74   0.0000       0.150902         4.1062 
  75   0.0000       0.159188         4.3317 
  76   0.0000       0.163250         4.4423 
  77   0.0000       0.171180         4.6580 
  78   0.0000       0.177380         4.8267 
  79   0.0000       0.185131         5.0377 
  80   0.0000       0.195040         5.3073 
  81   0.0000       0.199994         5.4421 
  82   0.0000       0.202293         5.5047 
  83   0.0000       0.209278         5.6947 
  84   0.0000       0.216015         5.8781 
  85   0.0000       0.221447         6.0259 
  86   0.0000       0.228653         6.2220 
  87   0.0000       0.239674         6.5219 
  88   0.0000       0.242558         6.6003 
  89   0.0000       0.252184         6.8623 
  90   0.0000       0.253901         6.9090 
  91   0.0000       0.263678         7.1750 
  92   0.0000       0.277901         7.5621 
  93   0.0000       0.297671         8.1000 
  94   0.0000       0.300554         8.1785 
  95   0.0000       0.303600         8.2614 
  96   0.0000       0.320875         8.7315 
  97   0.0000       0.327757         8.9187 
  98   0.0000       0.354867         9.6564 
  99   0.0000       0.363646         9.8953 
 100   0.0000       0.367439         9.9985 
 101   0.0000       0.392639        10.6842 
 102   0.0000       0.410931        11.1820 
 103   0.0000       0.417512        11.3611 
 104   0.0000       0.426460        11.6046 
 105   0.0000       0.444832        12.1045 
 106   0.0000       0.459169        12.4946 
 107   0.0000       0.481083        13.0909 
 108   0.0000       0.488033        13.2801 
 109   0.0000       0.492231        13.3943 
 110   0.0000       0.496413        13.5081 
 111   0.0000       0.505683        13.7603 
 112   0.0000       0.510755        13.8983 
 113   0.0000       0.519664        14.1408 
 114   0.0000       0.528697        14.3866 
 115   0.0000       0.532677        14.4949 
 116   0.0000       0.534026        14.5316 
 117   0.0000       0.542534        14.7631 
 118   0.0000       0.557920        15.1818 
 119   0.0000       0.566111        15.4047 
 120   0.0000       0.578454        15.7405 
 121   0.0000       0.587135        15.9768 
 122   0.0000       0.595032        16.1916 
 123   0.0000       0.607615        16.5340 
 124   0.0000       0.615140        16.7388 
 125   0.0000       0.622417        16.9368 
 126   0.0000       0.635938        17.3047 
 127   0.0000       0.640731        17.4352 
 128   0.0000       0.652262        17.7489 
 129   0.0000       0.659901        17.9568 
 130   0.0000       0.663684        18.0598 
 131   0.0000       0.676521        18.4091 
 132   0.0000       0.682873        18.5819 
 133   0.0000       0.689740        18.7688 
 134   0.0000       0.692146        18.8343 
 135   0.0000       0.703755        19.1502 
 136   0.0000       0.713256        19.4087 
 137   0.0000       0.715216        19.4620 
 138   0.0000       0.721648        19.6370 
 139   0.0000       0.728013        19.8103 
 140   0.0000       0.738018        20.0825 
 141   0.0000       0.740844        20.1594 
 142   0.0000       0.745615        20.2892 
 143   0.0000       0.747516        20.3409 
 144   0.0000       0.750455        20.4209 
 145   0.0000       0.758698        20.6452 
 146   0.0000       0.762856        20.7584 
 147   0.0000       0.768406        20.9094 
 148   0.0000       0.777525        21.1575 
 149   0.0000       0.781127        21.2555 
 150   0.0000       0.784461        21.3463 
 151   0.0000       0.789498        21.4833 
 152   0.0000       0.791923        21.5493 
 153   0.0000       0.796318        21.6689 
 154   0.0000       0.799889        21.7661 
 155   0.0000       0.803808        21.8727 
 156   0.0000       0.806178        21.9372 
 157   0.0000       0.809646        22.0316 
 158   0.0000       0.815801        22.1991 
 159   0.0000       0.817423        22.2432 
 160   0.0000       0.827891        22.5281 
 161   0.0000       0.837634        22.7932 
 162   0.0000       0.843226        22.9454 
 163   0.0000       0.847867        23.0716 
 164   0.0000       0.852777        23.2052 
 165   0.0000       0.859118        23.3778 
 166   0.0000       0.870027        23.6747 
 167   0.0000       0.881063        23.9749 
 168   0.0000       0.884832        24.0775 
 169   0.0000       0.889885        24.2150 
 170   0.0000       0.905366        24.6363 
 171   0.0000       0.916964        24.9519 
 172   0.0000       0.922894        25.1132 
 173   0.0000       0.937421        25.5085 
 174   0.0000       0.942596        25.6493 
 175   0.0000       0.967170        26.3180 
 176   0.0000       0.981180        26.6993 
 177   0.0000       1.001057        27.2401 
 178   0.0000       1.018081        27.7034 
 179   0.0000       1.037882        28.2422 
 180   0.0000       1.049145        28.5487 
 181   0.0000       1.062453        28.9108 
 182   0.0000       1.079310        29.3695 
 183   0.0000       1.090055        29.6619 
 184   0.0000       1.104650        30.0590 
 185   0.0000       1.111473        30.2447 
 186   0.0000       1.122761        30.5519 
 187   0.0000       1.129472        30.7345 
 188   0.0000       1.154570        31.4175 
 189   0.0000       1.173327        31.9279 
 190   0.0000       1.196348        32.5543 
 191   0.0000       1.238787        33.7091 
 192   0.0000       1.252774        34.0897 
 193   0.0000       1.262658        34.3587 
 194   0.0000       1.286454        35.0062 
 195   0.0000       1.312047        35.7026 
 196   0.0000       1.319689        35.9106 
 197   0.0000       1.326714        36.1017 
 198   0.0000       1.374357        37.3982 
 199   0.0000       1.381324        37.5877 
 200   0.0000       1.393191        37.9106 
 201   0.0000       1.399462        38.0813 
 202   0.0000       1.414282        38.4846 
 203   0.0000       1.423282        38.7295 
 204   0.0000       1.442951        39.2647 
 205   0.0000       1.455108        39.5955 
 206   0.0000       1.460602        39.7450 
 207   0.0000       1.470440        40.0127 
 208   0.0000       1.533497        41.7286 
 209   0.0000       1.544906        42.0390 
 210   0.0000       1.581608        43.0377 
 211   0.0000       1.599015        43.5114 
 212   0.0000       1.607510        43.7426 
 213   0.0000       1.615531        43.9608 
 214   0.0000       1.624968        44.2176 
 215   0.0000       1.633062        44.4379 
 216   0.0000       1.662882        45.2493 
 217   0.0000       1.672503        45.5111 
 218   0.0000       1.762627        47.9635 
 219   0.0000       1.780272        48.4437 
 220   0.0000       1.788758        48.6746 
 221   0.0000       1.795639        48.8618 
 222   0.0000       1.800539        48.9952 
 223   0.0000       1.805277        49.1241 
 224   0.0000       1.817669        49.4613 
 225   0.0000       1.830194        49.8021 
 226   0.0000       1.833393        49.8892 
 227   0.0000       1.840591        50.0850 
 228   0.0000       1.845991        50.2320 
 229   0.0000       1.850711        50.3604 
 230   0.0000       1.858851        50.5819 
 231   0.0000       1.861662        50.6584 
 232   0.0000       1.866883        50.8005 
 233   0.0000       1.872939        50.9653 
 234   0.0000       1.883189        51.2442 
 235   0.0000       1.894125        51.5418 
 236   0.0000       1.899022        51.6750 
 237   0.0000       1.911362        52.0108 
 238   0.0000       1.942070        52.8464 
 239   0.0000       1.943141        52.8756 
 240   0.0000       1.949670        53.0532 
 241   0.0000       1.953408        53.1549 
 242   0.0000       1.966225        53.5037 
 243   0.0000       1.972614        53.6776 
 244   0.0000       1.973552        53.7031 
 245   0.0000       1.979423        53.8628 
 246   0.0000       1.996256        54.3209 
 247   0.0000       2.009454        54.6800 
 248   0.0000       2.019218        54.9457 
 249   0.0000       2.022883        55.0454 
 250   0.0000       2.025759        55.1237 
 251   0.0000       2.032597        55.3098 
 252   0.0000       2.043285        55.6006 
 253   0.0000       2.048513        55.7429 
 254   0.0000       2.058801        56.0228 
 255   0.0000       2.068299        56.2813 
 256   0.0000       2.082062        56.6558 
 257   0.0000       2.108670        57.3798 
 258   0.0000       2.117475        57.6194 
 259   0.0000       2.132799        58.0364 
 260   0.0000       2.153748        58.6065 
 261   0.0000       2.157319        58.7036 
 262   0.0000       2.167348        58.9765 
 263   0.0000       2.185968        59.4832 
 264   0.0000       2.204671        59.9921 
 265   0.0000       2.233507        60.7768 
 266   0.0000       2.243518        61.0492 
 267   0.0000       2.266949        61.6868 
 268   0.0000       2.281385        62.0796 
 269   0.0000       2.303909        62.6925 
 270   0.0000       2.330797        63.4242 
 271   0.0000       2.343343        63.7656 
 272   0.0000       2.351244        63.9806 
 273   0.0000       2.362577        64.2890 
 274   0.0000       2.377876        64.7053 
 275   0.0000       2.407243        65.5044 
 276   0.0000       2.410020        65.5800 
 277   0.0000       2.424126        65.9638 
 278   0.0000       2.448036        66.6144 
 279   0.0000       2.468541        67.1724 
 280   0.0000       2.472131        67.2701 
 281   0.0000       2.480910        67.5090 
 282   0.0000       2.517522        68.5052 
 283   0.0000       2.518828        68.5408 
 284   0.0000       2.522647        68.6447 
 285   0.0000       2.538794        69.0841 
 286   0.0000       2.545025        69.2537 
 287   0.0000       2.560487        69.6744 
 288   0.0000       2.571467        69.9732 
 289   0.0000       2.581232        70.2389 
 290   0.0000       2.613128        71.1068 
 291   0.0000       2.638038        71.7847 
 292   0.0000       2.652881        72.1886 
 293   0.0000       2.694924        73.3326 
 294   0.0000       2.711951        73.7959 
 295   0.0000       2.730528        74.3015 
 296   0.0000       2.752474        74.8986 
 297   0.0000       2.758952        75.0749 
 298   0.0000       2.775643        75.5291 
 299   0.0000       2.794368        76.0386 
 300   0.0000       2.820545        76.7509 
 301   0.0000       2.843950        77.3878 
 302   0.0000       2.862395        77.8897 
 303   0.0000       2.891420        78.6795 
 304   0.0000       2.922403        79.5226 
 305   0.0000       2.963494        80.6408 
 306   0.0000       2.978606        81.0520 
 307   0.0000       2.995629        81.5152 
 308   0.0000       3.002426        81.7002 
 309   0.0000       3.011635        81.9507 
 310   0.0000       3.041445        82.7619 
 311   0.0000       3.059551        83.2546 
 312   0.0000       3.073762        83.6413 
 313   0.0000       3.122142        84.9578 
 314   0.0000       3.137872        85.3858 
 315   0.0000       3.152995        85.7974 
 316   0.0000       3.170331        86.2691 
 317   0.0000       3.174616        86.3857 
 318   0.0000       3.207361        87.2767 
 319   0.0000       3.250760        88.4577 
 320   0.0000       3.332180        90.6732 
 321   0.0000       3.408000        92.7364 

                    ********************************
                    * MULLIKEN POPULATION ANALYSIS *
                    ********************************

-----------------------
MULLIKEN ATOMIC CHARGES
-----------------------
   0 S :    0.123410
   1 C :   -0.156765
   2 C :   -0.083686
   3 C :    0.018061
   4 C :   -0.145190
   5 H :    0.025606
   6 C :    0.018090
   7 H :    0.040179
   8 H :    0.039575
   9 C :   -0.070005
  10 H :    0.038497
  11 H :    0.028549
  12 C :   -0.049391
  13 H :    0.044429
  14 H :    0.040064
  15 H :    0.010013
  16 S :    0.065181
  17 C :   -0.085949
  18 C :   -0.046508
  19 C :   -0.027001
  20 C :   -0.171231
  21 H :    0.036846
  22 C :    0.063910
  23 H :    0.040303
  24 H :    0.011299
  25 C :   -0.041991
  26 H :    0.028094
  27 H :    0.011058
  28 C :   -0.050429
  29 H :    0.037247
  30 H :    0.035796
  31 H :    0.029185
  32 H :    0.076945
  33 H :    0.065809
Sum of atomic charges:    0.0000000

--------------------------------
MULLIKEN REDUCED ORBITAL CHARGES
--------------------------------
  0 S s       :     5.845325  s :     5.845325
      pz      :     3.109017  p :     9.921255
      px      :     3.229128
      py      :     3.583111
      dz2     :     0.030664  d :     0.110010
      dxz     :     0.026013
      dyz     :     0.018056
      dx2y2   :     0.020706
      dxy     :     0.014572
  1 C s       :     3.209005  s :     3.209005
      pz      :     0.863344  p :     2.915536
      px      :     0.967276
      py      :     1.084916
      dz2     :     0.007483  d :     0.032225
      dxz     :     0.009342
      dyz     :     0.004435
      dx2y2   :     0.004429
      dxy     :     0.006535
  2 C s       :     3.094290  s :     3.094290
      pz      :     0.989318  p :     2.947721
      px      :     0.961900
      py      :     0.996503
      dz2     :     0.010133  d :     0.041674
      dxz     :     0.011400
      dyz     :     0.006623
      dx2y2   :     0.005913
      dxy     :     0.007606
  3 C s       :     3.204071  s :     3.204071
      pz      :     0.910265  p :     2.743162
      px      :     0.822564
      py      :     1.010333
      dz2     :     0.008256  d :     0.034706
      dxz     :     0.011212
      dyz     :     0.005851
      dx2y2   :     0.004910
      dxy     :     0.004477
  4 C s       :     3.058235  s :     3.058235
      pz      :     1.025414  p :     3.039409
      px      :     0.926901
      py      :     1.087094
      dz2     :     0.010205  d :     0.047546
      dxz     :     0.012226
      dyz     :     0.007154
      dx2y2   :     0.008299
      dxy     :     0.009661
  5 H s       :     0.950749  s :     0.950749
      pz      :     0.004206  p :     0.023645
      px      :     0.014451
      py      :     0.004988
  6 C s       :     3.044637  s :     3.044637
      pz      :     0.959729  p :     2.903305
      px      :     0.955328
      py      :     0.988247
      dz2     :     0.006818  d :     0.033968
      dxz     :     0.008912
      dyz     :     0.003756
      dx2y2   :     0.005416
      dxy     :     0.009066
  7 H s       :     0.938600  s :     0.938600
      pz      :     0.004000  p :     0.021221
      px      :     0.006526
      py      :     0.010695
  8 H s       :     0.939833  s :     0.939833
      pz      :     0.009801  p :     0.020592
      px      :     0.006962
      py      :     0.003829
  9 C s       :     3.059445  s :     3.059445
      pz      :     1.012529  p :     2.974201
      px      :     0.956968
      py      :     1.004704
      dz2     :     0.007721  d :     0.036359
      dxz     :     0.009781
      dyz     :     0.003385
      dx2y2   :     0.005952
      dxy     :     0.009519
 10 H s       :     0.939318  s :     0.939318
      pz      :     0.009805  p :     0.022185
      px      :     0.008019
      py      :     0.004360
 11 H s       :     0.948420  s :     0.948420
      pz      :     0.004221  p :     0.023032
      px      :     0.007019
      py      :     0.011792
 12 C s       :     3.029205  s :     3.029205
      pz      :     0.996586  p :     2.993505
      px      :     1.025949
      py      :     0.970970
      dz2     :     0.005022  d :     0.026680
      dxz     :     0.007532
      dyz     :     0.004785
      dx2y2   :     0.002698
      dxy     :     0.006643
 13 H s       :     0.931655  s :     0.931655
      pz      :     0.005373  p :     0.023915
      px      :     0.006096
      py      :     0.012446
 14 H s       :     0.938168  s :     0.938168
      pz      :     0.004362  p :     0.021768
      px      :     0.007892
      py      :     0.009514
 15 H s       :     0.963000  s :     0.963000
      pz      :     0.009561  p :     0.026987
      px      :     0.009332
      py      :     0.008094
 16 S s       :     5.857675  s :     5.857675
      pz      :     2.993599  p :     9.987143
      px      :     3.567481
      py      :     3.426063
      dz2     :     0.014262  d :     0.090001
      dxz     :     0.024116
      dyz     :     0.028343
      dx2y2   :     0.010824
      dxy     :     0.012455
 17 C s       :     3.161952  s :     3.161952
      pz      :     0.916161  p :     2.889647
      px      :     1.017836
      py      :     0.955650
      dz2     :     0.008169  d :     0.034350
      dxz     :     0.005124
      dyz     :     0.008693
      dx2y2   :     0.007172
      dxy     :     0.005193
 18 C s       :     3.175415  s :     3.175415
      pz      :     0.928005  p :     2.837563
      px      :     0.987730
      py      :     0.921827
      dz2     :     0.008385  d :     0.033530
      dxz     :     0.007402
      dyz     :     0.009445
      dx2y2   :     0.004405
      dxy     :     0.003893
 19 C s       :     3.088332  s :     3.088332
      pz      :     0.974438  p :     2.897164
      px      :     0.978167
      py      :     0.944560
      dz2     :     0.012576  d :     0.041505
      dxz     :     0.005665
      dyz     :     0.009514
      dx2y2   :     0.007172
      dxy     :     0.006578
 20 C s       :     3.110512  s :     3.110512
      pz      :     0.927950  p :     3.020578
      px      :     1.074971
      py      :     1.017657
      dz2     :     0.009387  d :     0.040142
      dxz     :     0.006696
      dyz     :     0.011792
      dx2y2   :     0.007207
      dxy     :     0.005060
 21 H s       :     0.941308  s :     0.941308
      pz      :     0.004634  p :     0.021846
      px      :     0.006189
      py      :     0.011023
 22 C s       :     2.931212  s :     2.931212
      pz      :     0.999913  p :     2.966903
      px      :     0.982971
      py      :     0.984019
      dz2     :     0.007070  d :     0.037975
      dxz     :     0.005859
      dyz     :     0.007998
      dx2y2   :     0.006251
      dxy     :     0.010797
 23 H s       :     0.936534  s :     0.936534
      pz      :     0.005097  p :     0.023163
      px      :     0.008570
      py      :     0.009495
 24 H s       :     0.964275  s :     0.964275
      pz      :     0.012867  p :     0.024426
      px      :     0.005089
      py      :     0.006471
 25 C s       :     3.020002  s :     3.020002
      pz      :     1.017054  p :     2.983928
      px      :     0.983428
      py      :     0.983446
      dz2     :     0.008177  d :     0.038061
      dxz     :     0.005927
      dyz     :     0.007864
      dx2y2   :     0.006431
      dxy     :     0.009662
 26 H s       :     0.949637  s :     0.949637
      pz      :     0.004535  p :     0.022269
      px      :     0.007409
      py      :     0.010325
 27 H s       :     0.964077  s :     0.964077
      pz      :     0.012386  p :     0.024865
      px      :     0.005604
      py      :     0.006875
 28 C s       :     3.024601  s :     3.024601
      pz      :     0.999918  p :     2.998543
      px      :     1.029092
      py      :     0.969533
      dz2     :     0.007517  d :     0.027285
      dxz     :     0.002168
      dyz     :     0.006440
      dx2y2   :     0.007864
      dxy     :     0.003296
 29 H s       :     0.939025  s :     0.939025
      pz      :     0.004137  p :     0.023729
      px      :     0.006938
      py      :     0.012654
 30 H s       :     0.939906  s :     0.939906
      pz      :     0.012220  p :     0.024298
      px      :     0.006078
      py      :     0.005999
 31 H s       :     0.947224  s :     0.947224
      pz      :     0.004427  p :     0.023591
      px      :     0.013723
      py      :     0.005442
 32 H s       :     0.902070  s :     0.902070
      pz      :     0.008554  p :     0.020985
      px      :     0.006217
      py      :     0.006214
 33 H s       :     0.910380  s :     0.910380
      pz      :     0.015762  p :     0.023811
      px      :     0.004525
      py      :     0.003524


                     *******************************
                     * LOEWDIN POPULATION ANALYSIS *
                     *******************************

----------------------
LOEWDIN ATOMIC CHARGES
----------------------
   0 S :    0.418530
   1 C :   -0.219889
   2 C :   -0.060408
   3 C :   -0.067578
   4 C :   -0.201991
   5 H :    0.038704
   6 C :   -0.036857
   7 H :    0.040732
   8 H :    0.034702
   9 C :   -0.040406
  10 H :    0.023523
  11 H :    0.023101
  12 C :   -0.073563
  13 H :    0.024203
  14 H :    0.041349
  15 H :    0.018563
  16 S :    0.332913
  17 C :   -0.171282
  18 C :   -0.080887
  19 C :   -0.042580
  20 C :   -0.171744
  21 H :    0.036685
  22 C :   -0.041910
  23 H :    0.040768
  24 H :    0.030359
  25 C :   -0.034893
  26 H :    0.028668
  27 H :    0.013372
  28 C :   -0.063638
  29 H :    0.029421
  30 H :    0.023046
  31 H :    0.030537
  32 H :    0.043990
  33 H :    0.034460

-------------------------------
LOEWDIN REDUCED ORBITAL CHARGES
-------------------------------
  0 S s       :     5.502671  s :     5.502671
      pz      :     3.115887  p :     9.942182
      px      :     3.280459
      py      :     3.545836
      dz2     :     0.039492  d :     0.136616
      dxz     :     0.032859
      dyz     :     0.022324
      dx2y2   :     0.025529
      dxy     :     0.016413
  1 C s       :     2.961269  s :     2.961269
      pz      :     1.005023  p :     3.183970
      px      :     1.068980
      py      :     1.109967
      dz2     :     0.017526  d :     0.074650
      dxz     :     0.023205
      dyz     :     0.008796
      dx2y2   :     0.011941
      dxy     :     0.013183
  2 C s       :     2.882642  s :     2.882642
      pz      :     1.030137  p :     3.077380
      px      :     1.061314
      py      :     0.985929
      dz2     :     0.025979  d :     0.100386
      dxz     :     0.029262
      dyz     :     0.013102
      dx2y2   :     0.016350
      dxy     :     0.015694
  3 C s       :     2.864327  s :     2.864327
      pz      :     1.036493  p :     3.111950
      px      :     1.052211
      py      :     1.023246
      dz2     :     0.022996  d :     0.091301
      dxz     :     0.032527
      dyz     :     0.013507
      dx2y2   :     0.013191
      dxy     :     0.009081
  4 C s       :     2.898619  s :     2.898619
      pz      :     1.070873  p :     3.189041
      px      :     1.046295
      py      :     1.071873
      dz2     :     0.025793  d :     0.114332
      dxz     :     0.031232
      dyz     :     0.016766
      dx2y2   :     0.020016
      dxy     :     0.020525
  5 H s       :     0.892275  s :     0.892275
      pz      :     0.013286  p :     0.069021
      px      :     0.040665
      py      :     0.015069
  6 C s       :     2.857307  s :     2.857307
      pz      :     1.021960  p :     3.095815
      px      :     1.030649
      py      :     1.043206
      dz2     :     0.017155  d :     0.083735
      dxz     :     0.023360
      dyz     :     0.008282
      dx2y2   :     0.010973
      dxy     :     0.023966
  7 H s       :     0.899696  s :     0.899696
      pz      :     0.011044  p :     0.059571
      px      :     0.018193
      py      :     0.030335
  8 H s       :     0.903578  s :     0.903578
      pz      :     0.029047  p :     0.061720
      px      :     0.020870
      py      :     0.011803
  9 C s       :     2.835676  s :     2.835676
      pz      :     1.038079  p :     3.116911
      px      :     1.025460
      py      :     1.053371
      dz2     :     0.018312  d :     0.087819
      dxz     :     0.025174
      dyz     :     0.006642
      dx2y2   :     0.012531
      dxy     :     0.025159
 10 H s       :     0.909662  s :     0.909662
      pz      :     0.029700  p :     0.066815
      px      :     0.023544
      py      :     0.013570
 11 H s       :     0.906715  s :     0.906715
      pz      :     0.014215  p :     0.070185
      px      :     0.020934
      py      :     0.035035
 12 C s       :     2.846225  s :     2.846225
      pz      :     1.047066  p :     3.160453
      px      :     1.073163
      py      :     1.040224
      dz2     :     0.012567  d :     0.066885
      dxz     :     0.018530
      dyz     :     0.011144
      dx2y2   :     0.006678
      dxy     :     0.017967
 13 H s       :     0.906208  s :     0.906208
      pz      :     0.017034  p :     0.069589
      px      :     0.017336
      py      :     0.035219
 14 H s       :     0.900013  s :     0.900013
      pz      :     0.012043  p :     0.058638
      px      :     0.019806
      py      :     0.026789
 15 H s       :     0.904779  s :     0.904779
      pz      :     0.028787  p :     0.076658
      px      :     0.026686
      py      :     0.021185
 16 S s       :     5.560587  s :     5.560587
      pz      :     3.004835  p :     9.997839
      px      :     3.558937
      py      :     3.434067
      dz2     :     0.018232  d :     0.108661
      dxz     :     0.029797
      dyz     :     0.035716
      dx2y2   :     0.011405
      dxy     :     0.013511
 17 C s       :     2.936243  s :     2.936243
      pz      :     1.056468  p :     3.154378
      px      :     1.055174
      py      :     1.042737
      dz2     :     0.020225  d :     0.080660
      dxz     :     0.011774
      dyz     :     0.021880
      dx2y2   :     0.014689
      dxy     :     0.012093
 18 C s       :     2.886597  s :     2.886597
      pz      :     1.034452  p :     3.107967
      px      :     1.031838
      py      :     1.041677
      dz2     :     0.024280  d :     0.086322
      dxz     :     0.017571
      dyz     :     0.025227
      dx2y2   :     0.008785
      dxy     :     0.010458
 19 C s       :     2.874733  s :     2.874733
      pz      :     1.038286  p :     3.065842
      px      :     0.990622
      py      :     1.036935
      dz2     :     0.032965  d :     0.102005
      dxz     :     0.012202
      dyz     :     0.025158
      dx2y2   :     0.015913
      dxy     :     0.015767
 20 C s       :     2.929545  s :     2.929545
      pz      :     0.997057  p :     3.146905
      px      :     1.077272
      py      :     1.072575
      dz2     :     0.023162  d :     0.095295
      dxz     :     0.015483
      dyz     :     0.028924
      dx2y2   :     0.016095
      dxy     :     0.011631
 21 H s       :     0.900099  s :     0.900099
      pz      :     0.014839  p :     0.063216
      px      :     0.017555
      py      :     0.030822
 22 C s       :     2.816300  s :     2.816300
      pz      :     1.049291  p :     3.129195
      px      :     1.042270
      py      :     1.037634
      dz2     :     0.018979  d :     0.096414
      dxz     :     0.012937
      dyz     :     0.021471
      dx2y2   :     0.015791
      dxy     :     0.027237
 23 H s       :     0.893919  s :     0.893919
      pz      :     0.013728  p :     0.065313
      px      :     0.025762
      py      :     0.025823
 24 H s       :     0.900255  s :     0.900255
      pz      :     0.035633  p :     0.069385
      px      :     0.015601
      py      :     0.018151
 25 C s       :     2.817990  s :     2.817990
      pz      :     1.053687  p :     3.123165
      px      :     1.033211
      py      :     1.036267
      dz2     :     0.019528  d :     0.093738
      dxz     :     0.012754
      dyz     :     0.021409
      dx2y2   :     0.015991
      dxy     :     0.024057
 26 H s       :     0.905982  s :     0.905982
      pz      :     0.013670  p :     0.065350
      px      :     0.022147
      py      :     0.029533
 27 H s       :     0.911125  s :     0.911125
      pz      :     0.036365  p :     0.075503
      px      :     0.018388
      py      :     0.020750
 28 C s       :     2.840147  s :     2.840147
      pz      :     1.046023  p :     3.154549
      px      :     1.077831
      py      :     1.030694
      dz2     :     0.017365  d :     0.068942
      dxz     :     0.005508
      dyz     :     0.018258
      dx2y2   :     0.019502
      dxy     :     0.008309
 29 H s       :     0.904921  s :     0.904921
      pz      :     0.012818  p :     0.065659
      px      :     0.016948
      py      :     0.035893
 30 H s       :     0.906944  s :     0.906944
      pz      :     0.035778  p :     0.070010
      px      :     0.016469
      py      :     0.017763
 31 H s       :     0.904677  s :     0.904677
      pz      :     0.012616  p :     0.064786
      px      :     0.037968
      py      :     0.014203
 32 H s       :     0.891585  s :     0.891585
      pz      :     0.027150  p :     0.064425
      px      :     0.018186
      py      :     0.019088
 33 H s       :     0.892019  s :     0.892019
      pz      :     0.046000  p :     0.073520
      px      :     0.014551
      py      :     0.012970


                      *****************************
                      * MAYER POPULATION ANALYSIS *
                      *****************************

  NA   - Mulliken gross atomic population
  ZA   - Total nuclear charge
  QA   - Mulliken gross atomic charge
  VA   - Mayer's total valence
  BVA  - Mayer's bonded valence
  FA   - Mayer's free valence

  ATOM       NA         ZA         QA         VA         BVA        FA
  0 S     15.8766    16.0000     0.1234     2.4991     2.4991    -0.0000
  1 C      6.1568     6.0000    -0.1568     3.8361     3.8361     0.0000
  2 C      6.0837     6.0000    -0.0837     3.9590     3.9590     0.0000
  3 C      5.9819     6.0000     0.0181     3.9255     3.9255     0.0000
  4 C      6.1452     6.0000    -0.1452     3.9380     3.9380     0.0000
  5 H      0.9744     1.0000     0.0256     1.0045     1.0045    -0.0000
  6 C      5.9819     6.0000     0.0181     3.9545     3.9545    -0.0000
  7 H      0.9598     1.0000     0.0402     0.9771     0.9771     0.0000
  8 H      0.9604     1.0000     0.0396     0.9889     0.9889     0.0000
  9 C      6.0700     6.0000    -0.0700     4.0610     4.0610    -0.0000
 10 H      0.9615     1.0000     0.0385     0.9794     0.9794     0.0000
 11 H      0.9715     1.0000     0.0285     0.9772     0.9772     0.0000
 12 C      6.0494     6.0000    -0.0494     3.9880     3.9880     0.0000
 13 H      0.9556     1.0000     0.0444     0.9941     0.9941     0.0000
 14 H      0.9599     1.0000     0.0401     0.9822     0.9822     0.0000
 15 H      0.9900     1.0000     0.0100     0.9848     0.9848    -0.0000
 16 S     15.9348    16.0000     0.0652     2.4040     2.4040    -0.0000
 17 C      6.0859     6.0000    -0.0859     3.8562     3.8562     0.0000
 18 C      6.0465     6.0000    -0.0465     3.9381     3.9381     0.0000
 19 C      6.0270     6.0000    -0.0270     3.9872     3.9872     0.0000
 20 C      6.1712     6.0000    -0.1712     3.8962     3.8962    -0.0000
 21 H      0.9632     1.0000     0.0368     0.9916     0.9916     0.0000
 22 C      5.9361     6.0000     0.0639     3.9652     3.9652     0.0000
 23 H      0.9597     1.0000     0.0403     0.9851     0.9851    -0.0000
 24 H      0.9887     1.0000     0.0113     0.9986     0.9986     0.0000
 25 C      6.0420     6.0000    -0.0420     4.0924     4.0924     0.0000
 26 H      0.9719     1.0000     0.0281     0.9799     0.9799     0.0000
 27 H      0.9889     1.0000     0.0111     0.9820     0.9820     0.0000
 28 C      6.0504     6.0000    -0.0504     4.0094     4.0094     0.0000
 29 H      0.9628     1.0000     0.0372     0.9861     0.9861    -0.0000
 30 H      0.9642     1.0000     0.0358     0.9925     0.9925    -0.0000
 31 H      0.9708     1.0000     0.0292     0.9829     0.9829     0.0000
 32 H      0.9231     1.0000     0.0769     0.9957     0.9957    -0.0000
 33 H      0.9342     1.0000     0.0658     0.9948     0.9948    -0.0000

  Mayer bond orders larger than 0.100000
B(  0-S ,  1-C ) :   1.1340 B(  0-S ,  4-C ) :   1.1671 B(  1-C ,  2-C ) :   1.6128 
B(  1-C , 32-H ) :   0.9598 B(  2-C ,  3-C ) :   1.2204 B(  2-C ,  6-C ) :   1.0025 
B(  3-C ,  4-C ) :   1.5836 B(  3-C ,  5-H ) :   0.9979 B(  4-C , 20-C ) :   1.0322 
B(  6-C ,  7-H ) :   0.9368 B(  6-C ,  8-H ) :   0.9522 B(  6-C ,  9-C ) :   1.0641 
B(  9-C , 10-H ) :   0.9565 B(  9-C , 11-H ) :   0.9556 B(  9-C , 12-C ) :   1.0776 
B( 12-C , 13-H ) :   0.9768 B( 12-C , 14-H ) :   0.9696 B( 12-C , 15-H ) :   0.9703 
B( 16-S , 17-C ) :   1.1182 B( 16-S , 20-C ) :   1.0993 B( 17-C , 18-C ) :   1.6740 
B( 17-C , 33-H ) :   0.9663 B( 18-C , 19-C ) :   1.1793 B( 18-C , 21-H ) :   0.9758 
B( 19-C , 20-C ) :   1.6131 B( 19-C , 22-C ) :   1.0549 B( 22-C , 23-H ) :   0.9262 
B( 22-C , 24-H ) :   0.9207 B( 22-C , 25-C ) :   1.0718 B( 25-C , 26-H ) :   0.9501 
B( 25-C , 27-H ) :   0.9522 B( 25-C , 28-C ) :   1.0930 B( 28-C , 29-H ) :   0.9735 
B( 28-C , 30-H ) :   0.9757 B( 28-C , 31-H ) :   0.9728 

-------
TIMINGS
-------

Total SCF time: 0 days 0 hours 0 min 25 sec 

Total time                  ....      25.797 sec
Sum of individual times     ....      24.877 sec  ( 96.4%)

Fock matrix formation       ....      22.931 sec  ( 88.9%)
  XC integration            ....       1.793 sec  (  7.8% of F)
    Basis function eval.    ....       0.199 sec  ( 11.1% of XC)
    Density eval.           ....       0.141 sec  (  7.8% of XC)
    XC-Functional eval.     ....       0.160 sec  (  8.9% of XC)
    XC-Potential eval.      ....       0.157 sec  (  8.8% of XC)
Diagonalization             ....       0.137 sec  (  0.5%)
Density matrix formation    ....       0.018 sec  (  0.1%)
Population analysis         ....       0.046 sec  (  0.2%)
Initial guess               ....       0.193 sec  (  0.7%)
Orbital Transformation      ....       0.000 sec  (  0.0%)
Orbital Orthonormalization  ....       0.000 sec  (  0.0%)
DIIS solution               ....       0.148 sec  (  0.6%)
SOSCF solution              ....       0.110 sec  (  0.4%)
Grid generation             ....       1.295 sec  (  5.0%)


-------------------------------------------------------------------------------
                          DFT DISPERSION CORRECTION                            
                                                                               
                              DFTD3 V3.1  Rev 1                                
                              USING zero damping                               
-------------------------------------------------------------------------------
The omegaB97X-D3 functional is recognized. Fit by Chai et al.
Active option DFTDOPT                   ...         3   

molecular C6(AA) [au] = 14241.273695 


            DFT-D V3
 parameters
 s6 scaling factor         :     1.0000 
 rs6 scaling factor        :     1.2810 
 s8 scaling factor         :     1.0000 
 rs8 scaling factor        :     1.0940 
 Damping factor alpha6     :    14.0000 
 Damping factor alpha8     :    16.0000 
 ad hoc parameters k1-k3   :    16.0000     1.3333    -4.0000 

 Edisp/kcal,au: -8.507302299681  -0.013557247729 
 E6   /kcal   :  -3.891859488 
 E8   /kcal   :  -4.615442812 
 % E8         :  54.252719006 

-------------------------   ----------------
Dispersion correction           -0.013557248
-------------------------   ----------------


-------------------------   --------------------
FINAL SINGLE POINT ENERGY     -1339.857105598716
-------------------------   --------------------


                            ***************************************
                            *     ORCA property calculations      *
                            ***************************************

                                    ---------------------
                                    Active property flags
                                    ---------------------
   (+) Dipole Moment


------------------------------------------------------------------------------
                       ORCA ELECTRIC PROPERTIES CALCULATION
------------------------------------------------------------------------------

Dipole Moment Calculation                       ... on
Quadrupole Moment Calculation                   ... off
Polarizability Calculation                      ... off
GBWName                                         ... config_2384.gbw
Electron density file                           ... config_2384.scfp
The origin for moment calculation is the CENTER OF MASS  = (96.072578, 30.960086 157.996674)

-------------
DIPOLE MOMENT
-------------
                                X             Y             Z
Electronic contribution:     21.81163      -6.93435     -20.55922
Nuclear contribution   :    -22.32261       7.25987      20.97914
                        -----------------------------------------
Total Dipole Moment    :     -0.51098       0.32552       0.41992
                        -----------------------------------------
Magnitude (a.u.)       :      0.73715
Magnitude (Debye)      :      1.87369



--------------------
Rotational spectrum 
--------------------
 
Rotational constants in cm-1:     0.016490     0.008325     0.006346 
Rotational constants in MHz :   494.357921   249.571592   190.240324 

 Dipole components along the rotational axes: 
x,y,z [a.u.] :     0.256762     0.690989     0.001758 
x,y,z [Debye]:     0.652636     1.756354     0.004468 

 

Timings for individual modules:

Sum of individual times         ...       26.927 sec (=   0.449 min)
GTO integral calculation        ...        0.763 sec (=   0.013 min)   2.8 %
SCF iterations                  ...       26.164 sec (=   0.436 min)  97.2 %
                             ****ORCA TERMINATED NORMALLY****
TOTAL RUN TIME: 0 days 0 hours 0 minutes 27 seconds 600 msec
