
                                 *****************
                                 * O   R   C   A *
                                 *****************

           --- An Ab Initio, DFT and Semiempirical electronic structure package ---

                  #######################################################
                  #                        -***-                        #
                  #          Department of theory and spectroscopy      #
                  #               Directorship: Frank Neese             #
                  #        Max Planck Institute fuer Kohlenforschung    #
                  #                Kaiser Wilhelm Platz 1               #
                  #                 D-45470 Muelheim/Ruhr               #
                  #                      Germany                        #
                  #                                                     #
                  #                  All rights reserved                #
                  #                        -***-                        #
                  #######################################################


                         Program Version 4.2.1 -  RELEASE  -


 With contributions from (in alphabetic order):
   Daniel Aravena         : Magnetic Suceptibility
   Michael Atanasov       : Ab Initio Ligand Field Theory (pilot matlab implementation)
   Alexander A. Auer      : GIAO ZORA, VPT2
   Ute Becker             : Parallelization
   Giovanni Bistoni       : ED, misc. LED, open-shell LED, HFLD
   Martin Brehm           : Molecular dynamics
   Dmytro Bykov           : SCF Hessian
   Vijay G. Chilkuri      : MRCI spin determinant printing, contributions to CSF-ICE
   Dipayan Datta          : RHF DLPNO-CCSD density
   Achintya Kumar Dutta   : EOM-CC, STEOM-CC
   Dmitry Ganyushin       : Spin-Orbit,Spin-Spin,Magnetic field MRCI
   Miquel Garcia          : C-PCM Hessian, Gaussian charge scheme
   Yang Guo               : DLPNO-NEVPT2, CIM, IAO-localization
   Andreas Hansen         : Spin unrestricted coupled pair/coupled cluster methods
   Benjamin Helmich-Paris : CASSCF linear response (MC-RPA)
   Lee Huntington         : MR-EOM, pCC
   Robert Izsak           : Overlap fitted RIJCOSX, COSX-SCS-MP3, EOM
   Christian Kollmar      : KDIIS, OOCD, Brueckner-CCSD(T), CCSD density
   Simone Kossmann        : Meta GGA functionals, TD-DFT gradient, OOMP2, MP2 Hessian
   Martin Krupicka        : AUTO-CI
   Lucas Lang             : DCDCAS
   Dagmar Lenk            : GEPOL surface, SMD
   Dimitrios Liakos       : Extrapolation schemes; Compound Job, initial MDCI parallelization
   Dimitrios Manganas     : Further ROCIS development; embedding schemes
   Dimitrios Pantazis     : SARC Basis sets
   Taras Petrenko         : DFT Hessian,TD-DFT gradient, ASA, ECA, R-Raman, ABS, FL, XAS/XES, NRVS
   Peter Pinski           : DLPNO-MP2, DLPNO-MP2 Gradient
   Christoph Reimann      : Effective Core Potentials
   Marius Retegan         : Local ZFS, SOC
   Christoph Riplinger    : Optimizer, TS searches, QM/MM, DLPNO-CCSD(T), (RO)-DLPNO pert. Triples
   Tobias Risthaus        : Range-separated hybrids, TD-DFT gradient, RPA, STAB
   Michael Roemelt        : Original ROCIS implementation
   Masaaki Saitow         : Open-shell DLPNO-CCSD energy and density
   Barbara Sandhoefer     : DKH picture change effects
   Avijit Sen             : IP-ROCIS
   Kantharuban Sivalingam : CASSCF convergence, NEVPT2, FIC-MRCI
   Bernardo de Souza      : ESD, SOC TD-DFT
   Georgi Stoychev        : AutoAux, RI-MP2 NMR
   Willem Van den Heuvel  : Paramagnetic NMR
   Boris Wezisla          : Elementary symmetry handling
   Frank Wennmohs         : Technical directorship


 We gratefully acknowledge several colleagues who have allowed us to
 interface, adapt or use parts of their codes:
   Stefan Grimme, W. Hujo, H. Kruse,             : VdW corrections, initial TS optimization,
                  C. Bannwarth                     DFT functionals, gCP, sTDA/sTD-DF
   Ed Valeev, F. Pavosevic, A. Kumar             : LibInt (2-el integral package), F12 methods
   Garnet Chan, S. Sharma, J. Yang, R. Olivares  : DMRG
   Ulf Ekstrom                                   : XCFun DFT Library
   Mihaly Kallay                                 : mrcc  (arbitrary order and MRCC methods)
   Andreas Klamt, Michael Diedenhofen            : otool_cosmo (COSMO solvation model)
   Jiri Pittner, Ondrej Demel                    : Mk-CCSD
   Frank Weinhold                                : gennbo (NPA and NBO analysis)
   Christopher J. Cramer and Donald G. Truhlar   : smd solvation model
   Lars Goerigk                                  : TD-DFT with DH, B97 family of functionals
   V. Asgeirsson, H. Jonsson                     : NEB implementation
   FAccTs GmbH                                   : IRC, NEB, NEB-TS, Multilevel, MM, QM/MM, CI optimization
   S Lehtola, MJT Oliveira, MAL Marques          : LibXC Library


 Your calculation uses the libint2 library for the computation of 2-el integrals
 For citations please refer to: http://libint.valeyev.net

 Your ORCA version has been built with support for libXC version: 4.2.3
 For citations please refer to: https://tddft.org/programs/libxc/

 This ORCA versions uses:
   CBLAS   interface :  Fast vector & matrix operations
   LAPACKE interface :  Fast linear algebra routines
   SCALAPACK package :  Parallel linear algebra routines


Your calculation utilizes the atom-pairwise dispersion correction
with the zero-damping scheme (D30)
Cite in your paper:
S.Grimme, J.Antony, S.Ehrlich and H.Krieg, J.Chem.Phys., 132, (2010), 154104 
   

XCFun DFT library Copyright 2009-2010 Ulf Ekstrom and contributors.
See http://admol.org/xcfun for more information. This is free soft-
ware; see the source code for copying conditions. There is ABSOLUTELY
NO WARRANTY; not even for MERCHANTABILITY or FITNESS FOR A PARTICULAR
PURPOSE. For details see the documentation. Scientific users of this 
library should cite U. Ekstrom, L. Visscher, R. Bast, A. J. Thorvald-
sen and K. Ruud; J.Chem.Theor.Comp. 2010, DOI: 10.1021/ct100117s
XCFun Version 0.99 
----- Orbital basis set information -----
Your calculation utilizes the basis: def2-SVP
   F. Weigend and R. Ahlrichs, Phys. Chem. Chem. Phys. 7, 3297 (2005).

================================================================================
                                        WARNINGS
                       Please study these warnings very carefully!
================================================================================


INFO   : the flag for use of LIBINT has been found!

================================================================================
                                       INPUT FILE
================================================================================
NAME = config_2301.inp
|  1> ! wB97X-D3 SP def2-SVP
|  2> %pal
|  3> nprocs 16
|  4> end
|  5> 
|  6> * xyz 0 1
|  7> S 	 68.0241 	 20.7051 	 76.6243 	 
|  8> C 	 69.7265 	 20.8738 	 77.02 	 
|  9> C 	 70.0996 	 22.2234 	 76.9457 	 
| 10> C 	 69.0158 	 23.0419 	 76.5574 	 
| 11> C 	 67.8335 	 22.4034 	 76.4127 	 
| 12> H 	 69.0481 	 24.0936 	 76.3484 	 
| 13> C 	 71.4762 	 22.5748 	 77.3229 	 
| 14> H 	 72.0145 	 23.1921 	 76.6266 	 
| 15> H 	 72.0658 	 21.7055 	 77.441 	 
| 16> C 	 71.4614 	 23.5094 	 78.6517 	 
| 17> H 	 70.8411 	 24.341 	 78.506 	 
| 18> H 	 70.9581 	 22.9003 	 79.4129 	 
| 19> C 	 72.8986 	 23.8102 	 79.0905 	 
| 20> H 	 73.7206 	 23.0934 	 78.8415 	 
| 21> H 	 73.2167 	 24.8255 	 78.8266 	 
| 22> H 	 72.9949 	 23.7972 	 80.1712 	 
| 23> S 	 65.3891 	 21.9639 	 75.1417 	 
| 24> C 	 64.2222 	 23.2289 	 74.9377 	 
| 25> C 	 64.8102 	 24.4163 	 75.3251 	 
| 26> C 	 66.0485 	 24.3347 	 76.038 	 
| 27> C 	 66.5101 	 22.9855 	 76.0798 	 
| 28> H 	 64.2283 	 25.3219 	 75.1346 	 
| 29> C 	 66.8121 	 25.5635 	 76.4925 	 
| 30> H 	 67.3643 	 25.2651 	 77.2998 	 
| 31> H 	 66.1103 	 26.2891 	 76.9042 	 
| 32> C 	 67.7803 	 26.281 	 75.5273 	 
| 33> H 	 67.1911 	 26.8759 	 74.7778 	 
| 34> H 	 68.5126 	 25.6336 	 75.0102 	 
| 35> C 	 68.6579 	 27.4258 	 76.2373 	 
| 36> H 	 69.4624 	 27.7784 	 75.6312 	 
| 37> H 	 69.0482 	 26.9029 	 77.1057 	 
| 38> H 	 68.0089 	 28.2913 	 76.4522 	 
| 39> H 	 70.3877 	 20.0366 	 77.3876 	 
| 40> H 	 63.2378 	 23.0474 	 74.5029 	 
| 41> *
| 42> 
| 43>                          ****END OF INPUT****
================================================================================

                       ****************************
                       * Single Point Calculation *
                       ****************************

---------------------------------
CARTESIAN COORDINATES (ANGSTROEM)
---------------------------------
  S     68.024100   20.705100   76.624300
  C     69.726500   20.873800   77.020000
  C     70.099600   22.223400   76.945700
  C     69.015800   23.041900   76.557400
  C     67.833500   22.403400   76.412700
  H     69.048100   24.093600   76.348400
  C     71.476200   22.574800   77.322900
  H     72.014500   23.192100   76.626600
  H     72.065800   21.705500   77.441000
  C     71.461400   23.509400   78.651700
  H     70.841100   24.341000   78.506000
  H     70.958100   22.900300   79.412900
  C     72.898600   23.810200   79.090500
  H     73.720600   23.093400   78.841500
  H     73.216700   24.825500   78.826600
  H     72.994900   23.797200   80.171200
  S     65.389100   21.963900   75.141700
  C     64.222200   23.228900   74.937700
  C     64.810200   24.416300   75.325100
  C     66.048500   24.334700   76.038000
  C     66.510100   22.985500   76.079800
  H     64.228300   25.321900   75.134600
  C     66.812100   25.563500   76.492500
  H     67.364300   25.265100   77.299800
  H     66.110300   26.289100   76.904200
  C     67.780300   26.281000   75.527300
  H     67.191100   26.875900   74.777800
  H     68.512600   25.633600   75.010200
  C     68.657900   27.425800   76.237300
  H     69.462400   27.778400   75.631200
  H     69.048200   26.902900   77.105700
  H     68.008900   28.291300   76.452200
  H     70.387700   20.036600   77.387600
  H     63.237800   23.047400   74.502900

----------------------------
CARTESIAN COORDINATES (A.U.)
----------------------------
  NO LB      ZA    FRAG     MASS         X           Y           Z
   0 S    16.0000    0    32.060  128.546920   39.126969  144.798942
   1 C     6.0000    0    12.011  131.763989   39.445765  145.546707
   2 C     6.0000    0    12.011  132.469046   41.996140  145.406300
   3 C     6.0000    0    12.011  130.420961   43.542881  144.672520
   4 C     6.0000    0    12.011  128.186738   42.336290  144.399076
   5 H     1.0000    0     1.008  130.481999   45.530306  144.277567
   6 C     6.0000    0    12.011  135.070443   42.660190  146.119105
   7 H     1.0000    0     1.008  136.087683   43.826717  144.803289
   8 H     1.0000    0     1.008  136.184626   41.017451  146.342282
   9 C     6.0000    0    12.011  135.042475   44.426328  148.630173
  10 H     1.0000    0     1.008  133.870278   45.997824  148.354840
  11 H     1.0000    0     1.008  134.091376   43.275295  150.068633
  12 C     6.0000    0    12.011  137.758390   44.994757  149.459385
  13 H     1.0000    0     1.008  139.311744   43.640202  148.988843
  14 H     1.0000    0     1.008  138.359511   46.913396  148.960686
  15 H     1.0000    0     1.008  137.940370   44.970191  151.501612
  16 S    16.0000    0    32.060  123.567491   41.505756  141.997234
  17 C     6.0000    0    12.011  121.362370   43.896259  141.611730
  18 C     6.0000    0    12.011  122.473529   46.140120  142.343810
  19 C     6.0000    0    12.011  124.813577   45.985919  143.690996
  20 C     6.0000    0    12.011  125.685874   43.436300  143.769986
  21 H     1.0000    0     1.008  121.373897   47.851456  141.983817
  22 C     6.0000    0    12.011  126.256571   48.308014  144.549876
  23 H     1.0000    0     1.008  127.300078   47.744120  146.075452
  24 H     1.0000    0     1.008  124.930362   49.679199  145.327877
  25 C     6.0000    0    12.011  128.086204   49.663893  142.725913
  26 H     1.0000    0     1.008  126.972778   50.788091  141.309563
  27 H     1.0000    0     1.008  129.470051   48.440484  141.748735
  28 C     6.0000    0    12.011  129.744628   51.827251  144.067618
  29 H     1.0000    0     1.008  131.264913   52.493568  142.922255
  30 H     1.0000    0     1.008  130.482188   50.839113  145.708656
  31 H     1.0000    0     1.008  128.518196   53.462809  144.473720
  32 H     1.0000    0     1.008  133.013476   37.863687  146.241370
  33 H     1.0000    0     1.008  119.502123   43.553274  140.790077

--------------------------------
INTERNAL COORDINATES (ANGSTROEM)
--------------------------------
 S      0   0   0     0.000000000000     0.00000000     0.00000000
 C      1   0   0     1.755905447340     0.00000000     0.00000000
 C      2   1   0     1.402192661513   109.78589803     0.00000000
 C      3   2   1     1.412565602016   111.59975774   359.04041924
 C      4   3   2     1.351463514121   115.27052928     3.76841615
 H      4   3   2     1.072752152177   126.76432445   185.34532729
 C      3   2   1     1.469962366865   117.75383377   176.44612065
 H      7   3   2     1.075016218482   116.10371764   130.42797001
 H      7   3   2     1.057004380313   110.75933025    10.31648247
 C      7   3   2     1.624624768985   109.80804442   245.13226130
 H     10   7   3     1.047644567590   110.38232318   306.00434745
 H     10   7   3     1.097150463701   104.61207604    58.93565278
 C     10   7   3     1.532504460026   109.78932700   176.82676015
 H     13  10   7     1.118698904978   119.97292222   333.03509998
 H     13  10   7     1.096204775578   112.64373426   103.51308493
 H     13  10   7     1.085059989125   111.47271502   218.73985589
 S      5   4   3     2.789926990084   152.83385844   217.76723513
 C     17   5   4     1.733059897984   121.90878104   303.42055863
 C     18  17   5     1.380485972402   107.93912049     8.21740484
 C     19  18  17     1.431178486423   117.34054272   347.25563343
 C     20  19  18     1.426591195823   110.39435214     6.36581518
 H     19  18  17     1.093164772575   115.90740986   172.80593099
 C     20  19  18     1.516444740174   122.60040586   178.59891231
 H     23  20  19     1.022595076264   105.78757606   154.30780111
 H     23  20  19     1.090190575083   109.16894069    42.81328040
 C     23  20  19     1.543965197147   120.32915450   275.31705237
 H     26  23  20     1.123749482758   109.52206362    75.50003995
 H     26  23  20     1.105794944825   115.81991927   310.15465166
 C     26  23  20     1.607746497430   113.39879957   188.39308633
 H     29  26  23     1.067194555833   113.32495478   167.91101084
 H     29  26  23     1.086221459924   101.91229925    49.75645788
 H     29  26  23     1.102938466099   108.88141896   287.05216768
 H      2   1   3     1.128370081135   124.76793769   173.83671524
 H     18  17   5     1.091346255778   122.19759051   184.26971125

---------------------------
INTERNAL COORDINATES (A.U.)
---------------------------
 S      0   0   0     0.000000000000     0.00000000     0.00000000
 C      1   0   0     3.318180412534     0.00000000     0.00000000
 C      2   1   0     2.649760117253   109.78589803     0.00000000
 C      3   2   1     2.669362134009   111.59975774   359.04041924
 C      4   3   2     2.553895921675   115.27052928     3.76841615
 H      4   3   2     2.027207777189   126.76432445   185.34532729
 C      3   2   1     2.777826300546   117.75383377   176.44612065
 H      7   3   2     2.031486242455   116.10371764   130.42797001
 H      7   3   2     1.997448801146   110.75933025    10.31648247
 C      7   3   2     3.070095883767   109.80804442   245.13226130
 H     10   7   3     1.979761318435   110.38232318   306.00434745
 H     10   7   3     2.073313904100   104.61207604    58.93565278
 C     10   7   3     2.896013728462   109.78932700   176.82676015
 H     13  10   7     2.114034556727   119.97292222   333.03509998
 H     13  10   7     2.071526812539   112.64373426   103.51308493
 H     13  10   7     2.050466218322   111.47271502   218.73985589
 S      5   4   3     5.272197944894   152.83385844   217.76723513
 C     17   5   4     3.275008580871   121.90878104   303.42055863
 C     18  17   5     2.608740419561   107.93912049     8.21740484
 C     19  18  17     2.704535388099   117.34054272   347.25563343
 C     20  19  18     2.695866665169   110.39435214     6.36581518
 H     19  18  17     2.065782039418   115.90740986   172.80593099
 C     20  19  18     2.865665256153   122.60040586   178.59891231
 H     23  20  19     1.932424640036   105.78757606   154.30780111
 H     23  20  19     2.060161620689   109.16894069    42.81328040
 C     23  20  19     2.917671382913   120.32915450   275.31705237
 H     26  23  20     2.123578765549   109.52206362    75.50003995
 H     26  23  20     2.089649605993   115.81991927   310.15465166
 C     26  23  20     3.038200572915   113.39879957   188.39308633
 H     29  26  23     2.016705442136   113.32495478   167.91101084
 H     29  26  23     2.052661080045   101.91229925    49.75645788
 H     29  26  23     2.084251643494   108.88141896   287.05216768
 H      2   1   3     2.132310431055   124.76793769   173.83671524
 H     18  17   5     2.062345540700   122.19759051   184.26971125

---------------------
BASIS SET INFORMATION
---------------------
There are 3 groups of distinct atoms

 Group   1 Type S   : 10s7p1d contracted to 4s3p1d pattern {5311/511/1}
 Group   2 Type C   : 7s4p1d contracted to 3s2p1d pattern {511/31/1}
 Group   3 Type H   : 4s1p contracted to 2s1p pattern {31/1}

Atom   0S    basis set group =>   1
Atom   1C    basis set group =>   2
Atom   2C    basis set group =>   2
Atom   3C    basis set group =>   2
Atom   4C    basis set group =>   2
Atom   5H    basis set group =>   3
Atom   6C    basis set group =>   2
Atom   7H    basis set group =>   3
Atom   8H    basis set group =>   3
Atom   9C    basis set group =>   2
Atom  10H    basis set group =>   3
Atom  11H    basis set group =>   3
Atom  12C    basis set group =>   2
Atom  13H    basis set group =>   3
Atom  14H    basis set group =>   3
Atom  15H    basis set group =>   3
Atom  16S    basis set group =>   1
Atom  17C    basis set group =>   2
Atom  18C    basis set group =>   2
Atom  19C    basis set group =>   2
Atom  20C    basis set group =>   2
Atom  21H    basis set group =>   3
Atom  22C    basis set group =>   2
Atom  23H    basis set group =>   3
Atom  24H    basis set group =>   3
Atom  25C    basis set group =>   2
Atom  26H    basis set group =>   3
Atom  27H    basis set group =>   3
Atom  28C    basis set group =>   2
Atom  29H    basis set group =>   3
Atom  30H    basis set group =>   3
Atom  31H    basis set group =>   3
Atom  32H    basis set group =>   3
Atom  33H    basis set group =>   3


           ************************************************************
           *        Program running with 16 parallel MPI-processes    *
           *              working on a common directory               *
           ************************************************************
------------------------------------------------------------------------------
                           ORCA GTO INTEGRAL CALCULATION
------------------------------------------------------------------------------

                         BASIS SET STATISTICS AND STARTUP INFO

 # of primitive gaussian shells          ...  294
 # of primitive gaussian functions       ...  534
 # of contracted shells                  ...  154
 # of contracted basis functions         ...  322
 Highest angular momentum                ...    2
 Maximum contraction depth               ...    5
 Integral package used                   ... LIBINT
 Integral threshhold            Thresh   ...  1.000e-10
 Primitive cut-off              TCut     ...  1.000e-11


------------------------------ INTEGRAL EVALUATION ----------------------------


 * One electron integrals 
 Pre-screening matrix                    ... done
 Shell pair data                         ... done (   0.003 sec)



           ************************************************************
           *        Program running with 16 parallel MPI-processes    *
           *              working on a common directory               *
           ************************************************************
-------------------------------------------------------------------------------
                                 ORCA SCF
-------------------------------------------------------------------------------

------------
SCF SETTINGS
------------
Hamiltonian:
 Density Functional     Method          .... DFT(GTOs)
 Exchange Functional    Exchange        .... WB97X-D3
 Correlation Functional Correlation     .... WB97X-D3
 Gradients option       PostSCFGGA      .... off
 Hybrid DFT is turned on
   Fraction HF Exchange ScalHFX         ....  0.195728
   Scaling of DF-GGA-X  ScalDFX         ....  0.000000
   Scaling of DF-GGA-C  ScalDFC         ....  1.000000
   Scaling of DF-LDA-C  ScalLDAC        ....  1.000000
   Perturbative correction              ....  0.000000
   Density functional embedding theory  .... OFF
 Long-range corrected/Screened/Range-Separated Hybrid DFT is turned on
   Amount of maximum screened exact exchange              ....  0.804272
   Range separation parameter mu (erf(mu*r12)/r12)        ....  0.250000


General Settings:
 Integral files         IntName         .... config_2301
 Hartree-Fock type      HFTyp           .... RHF
 Total Charge           Charge          ....    0
 Multiplicity           Mult            ....    1
 Number of Electrons    NEL             ....  134
 Basis Dimension        Dim             ....  322
 Nuclear Repulsion      ENuc            ....   1280.9962418490 Eh

Convergence Acceleration:
 DIIS                   CNVDIIS         .... on
   Start iteration      DIISMaxIt       ....    12
   Startup error        DIISStart       ....  0.200000
   # of expansion vecs  DIISMaxEq       ....     5
   Bias factor          DIISBfac        ....   1.050
   Max. coefficient     DIISMaxC        ....  10.000
 Newton-Raphson         CNVNR           .... off
 SOSCF                  CNVSOSCF        .... on
   Start iteration      SOSCFMaxIt      ....   150
   Startup grad/error   SOSCFStart      ....  0.003300
 Level Shifting         CNVShift        .... on
   Level shift para.    LevelShift      ....    0.2500
   Turn off err/grad.   ShiftErr        ....    0.0010
 Zerner damping         CNVZerner       .... off
 Static damping         CNVDamp         .... on
   Fraction old density DampFac         ....    0.7000
   Max. Damping (<1)    DampMax         ....    0.9800
   Min. Damping (>=0)   DampMin         ....    0.0000
   Turn off err/grad.   DampErr         ....    0.1000
 Fernandez-Rico         CNVRico         .... off

SCF Procedure:
 Maximum # iterations   MaxIter         ....   125
 SCF integral mode      SCFMode         .... Direct
   Integral package                     .... LIBINT
 Reset frequency        DirectResetFreq ....    20
 Integral Threshold     Thresh          ....  1.000e-10 Eh
 Primitive CutOff       TCut            ....  1.000e-11 Eh

Convergence Tolerance:
 Convergence Check Mode ConvCheckMode   .... Total+1el-Energy
 Convergence forced     ConvForced      .... 0
 Energy Change          TolE            ....  1.000e-06 Eh
 1-El. energy change                    ....  1.000e-03 Eh
 Orbital Gradient       TolG            ....  5.000e-05
 Orbital Rotation angle TolX            ....  5.000e-05
 DIIS Error             TolErr          ....  1.000e-06


Diagonalization of the overlap matrix:
Smallest eigenvalue                        ... 5.750e-04
Time for diagonalization                   ...    0.016 sec
Threshold for overlap eigenvalues          ... 1.000e-08
Number of eigenvalues below threshold      ... 0
Time for construction of square roots      ...    0.022 sec
Total time needed                          ...    0.039 sec

-------------------
DFT GRID GENERATION
-------------------

General Integration Accuracy     IntAcc      ...  4.340
Radial Grid Type                 RadialGrid  ... Gauss-Chebyshev
Angular Grid (max. acc.)         AngularGrid ... Lebedev-110
Angular grid pruning method      GridPruning ... 3 (G Style)
Weight generation scheme         WeightScheme... Becke
Basis function cutoff            BFCut       ...    1.0000e-10
Integration weight cutoff        WCut        ...    1.0000e-14
Grids for H and He will be reduced by one unit

# of grid points (after initial pruning)     ...  41088 (   0.0 sec)
# of grid points (after weights+screening)   ...  36978 (   0.0 sec)
nearest neighbour list constructed           ...    0.0 sec
Grid point re-assignment to atoms done       ...    0.0 sec
Grid point division into batches done        ...    0.0 sec
Reduced shell lists constructed in    0.1 sec

Total number of grid points                  ...    36978
Total number of batches                      ...      596
Average number of points per batch           ...       62
Average number of grid points per atom       ...     1088
Average number of shells per batch           ...    73.18 (47.52%)
Average number of basis functions per batch  ...   144.87 (44.99%)
Average number of large shells per batch     ...    45.28 (61.88%)
Average number of large basis fcns per batch ...    95.08 (65.63%)
Maximum spatial batch extension              ...  13.54, 19.40, 18.28 au
Average spatial batch extension              ...   0.20,  0.24,  0.27 au

Time for grid setup =    0.202 sec

------------------------------
INITIAL GUESS: MODEL POTENTIAL
------------------------------
Loading Hartree-Fock densities                     ... done
Calculating cut-offs                               ... done
Setting up the integral package                    ... done
Initializing the effective Hamiltonian             ... done
Starting the Coulomb interaction                   ... done (   0.0 sec)
Reading the grid                                   ... done
Mapping shells                                     ... done
Starting the XC term evaluation                    ... done (   0.0 sec)
  promolecular density results
     # of electrons  =    133.994193445
     EX              =   -126.700732253
     EC              =     -4.617090125
     EX+EC           =   -131.317822379
Transforming the Hamiltonian                       ... done (   0.0 sec)
Diagonalizing the Hamiltonian                      ... done (   0.0 sec)
Back transforming the eigenvectors                 ... done (   0.0 sec)
Now organizing SCF variables                       ... done
                      ------------------
                      INITIAL GUESS DONE (   0.4 sec)
                      ------------------
--------------
SCF ITERATIONS
--------------
ITER       Energy         Delta-E        Max-DP      RMS-DP      [F,P]     Damp
               ***  Starting incremental Fock matrix formation  ***
  0  -1339.4324702944   0.000000000000 0.06445639  0.00158850  0.1564914 0.7000
  1  -1339.6122441084  -0.179773813997 0.04355204  0.00115675  0.0945908 0.7000
                               ***Turning on DIIS***
  2  -1339.6992769840  -0.087032875694 0.08952235  0.00217158  0.0489989 0.0000
  3  -1339.8312594876  -0.131982503547 0.04006864  0.00098436  0.0419720 0.0000
  4  -1339.8595173158  -0.028257828224 0.00796808  0.00019638  0.0076069 0.0000
                      *** Initiating the SOSCF procedure ***
                           *** Shutting down DIIS ***
                      *** Re-Reading the Fockian *** 
                      *** Removing any level shift *** 
ITER      Energy       Delta-E        Grad      Rot      Max-DP    RMS-DP
  5  -1339.86036062  -0.0008433029  0.001691  0.001691  0.002731  0.000093
               *** Restarting incremental Fock matrix formation ***
  6  -1339.86054125  -0.0001806351  0.001479  0.004221  0.002177  0.000062
  7  -1339.86060289  -0.0000616394  0.000920  0.005551  0.003073  0.000057
  8  -1339.86061898  -0.0000160876  0.000304  0.000712  0.000759  0.000017
  9  -1339.86062285  -0.0000038670  0.000142  0.000334  0.000273  0.000008
                 **** Energy Check signals convergence ****
              ***Rediagonalizing the Fockian in SOSCF/NRSCF***

               *****************************************************
               *                     SUCCESS                       *
               *           SCF CONVERGED AFTER  10 CYCLES          *
               *****************************************************

Setting up the final grid:

General Integration Accuracy     IntAcc      ...  4.670
Radial Grid Type                 RadialGrid  ... Gauss-Chebyshev
Angular Grid (max. acc.)         AngularGrid ... Lebedev-302
Angular grid pruning method      GridPruning ... 3 (G Style)
Weight generation scheme         WeightScheme... Becke
Basis function cutoff            BFCut       ...    1.0000e-10
Integration weight cutoff        WCut        ...    1.0000e-14
Grids for H and He will be reduced by one unit

# of grid points (after initial pruning)     ... 161752 (   0.0 sec)
# of grid points (after weights+screening)   ... 142874 (   0.1 sec)
nearest neighbour list constructed           ...    0.0 sec
Grid point re-assignment to atoms done       ...    0.0 sec
Grid point division into batches done        ...    0.5 sec
Reduced shell lists constructed in    0.6 sec

Total number of grid points                  ...   142874
Total number of batches                      ...     2253
Average number of points per batch           ...       63
Average number of grid points per atom       ...     4202
Average number of shells per batch           ...    67.17 (43.62%)
Average number of basis functions per batch  ...   133.24 (41.38%)
Average number of large shells per batch     ...    40.66 (60.54%)
Average number of large basis fcns per batch ...    84.41 (63.35%)
Maximum spatial batch extension              ...  11.20, 13.27, 13.94 au
Average spatial batch extension              ...   0.14,  0.15,  0.16 au

Final grid set up in    0.9 sec
Final integration                            ... done (   0.3 sec)
Change in XC energy                          ...     0.006588721
Integrated number of electrons               ...   133.999935163
Previous integrated no of electrons          ...   133.997822246

----------------
TOTAL SCF ENERGY
----------------

Total Energy       :        -1339.85403442 Eh          -36459.28183 eV

Components:
Nuclear Repulsion  :         1280.99624185 Eh           34857.67987 eV
Electronic Energy  :        -2620.85027627 Eh          -71316.96170 eV
One Electron Energy:        -4378.46494776 Eh         -119144.08840 eV
Two Electron Energy:         1757.61467150 Eh           47827.12670 eV

Virial components:
Potential Energy   :        -2671.26121279 Eh          -72688.71302 eV
Kinetic Energy     :         1331.40717837 Eh           36229.43119 eV
Virial Ratio       :            2.00634431


DFT components:
N(Alpha)           :       66.999967581265 electrons
N(Beta)            :       66.999967581265 electrons
N(Total)           :      133.999935162530 electrons
E(XC)              :      -94.235052109531 Eh       
DFET-embed. en.    :        0.000000000000 Eh       

---------------
SCF CONVERGENCE
---------------

  Last Energy change         ...   -2.9297e-07  Tolerance :   1.0000e-06
  Last MAX-Density change    ...    1.5388e-04  Tolerance :   1.0000e-05
  Last RMS-Density change    ...    3.3808e-06  Tolerance :   1.0000e-06
  Last Orbital Gradient      ...    7.6331e-05  Tolerance :   5.0000e-05
  Last Orbital Rotation      ...    2.1896e-04  Tolerance :   5.0000e-05

             **** THE GBW FILE WAS UPDATED (config_2301.gbw) ****
             **** DENSITY FILE WAS UPDATED (config_2301.scfp) ****
             **** ENERGY FILE WAS UPDATED (config_2301.en.tmp) ****
             **** THE GBW FILE WAS UPDATED (config_2301.gbw) ****
             **** DENSITY FILE WAS UPDATED (config_2301.scfp) ****
----------------
ORBITAL ENERGIES
----------------

  NO   OCC          E(Eh)            E(eV) 
   0   2.0000     -88.964524     -2420.8478 
   1   2.0000     -88.964106     -2420.8364 
   2   2.0000     -10.337427      -281.2957 
   3   2.0000     -10.329233      -281.0727 
   4   2.0000     -10.319090      -280.7967 
   5   2.0000     -10.317876      -280.7637 
   6   2.0000     -10.311738      -280.5966 
   7   2.0000     -10.300258      -280.2843 
   8   2.0000     -10.299370      -280.2601 
   9   2.0000     -10.295844      -280.1642 
  10   2.0000     -10.291410      -280.0435 
  11   2.0000     -10.289739      -279.9980 
  12   2.0000     -10.289388      -279.9885 
  13   2.0000     -10.288491      -279.9641 
  14   2.0000     -10.284709      -279.8612 
  15   2.0000     -10.281658      -279.7781 
  16   2.0000      -8.079731      -219.8606 
  17   2.0000      -8.078754      -219.8341 
  18   2.0000      -6.038198      -164.3077 
  19   2.0000      -6.037282      -164.2828 
  20   2.0000      -6.034163      -164.1979 
  21   2.0000      -6.033188      -164.1714 
  22   2.0000      -6.030513      -164.0986 
  23   2.0000      -6.029587      -164.0734 
  24   2.0000      -1.009229       -27.4625 
  25   2.0000      -0.985042       -26.8044 
  26   2.0000      -0.910546       -24.7772 
  27   2.0000      -0.908325       -24.7168 
  28   2.0000      -0.866122       -23.5684 
  29   2.0000      -0.851972       -23.1833 
  30   2.0000      -0.844271       -22.9738 
  31   2.0000      -0.819154       -22.2903 
  32   2.0000      -0.785264       -21.3681 
  33   2.0000      -0.769475       -20.9385 
  34   2.0000      -0.713019       -19.4022 
  35   2.0000      -0.700699       -19.0670 
  36   2.0000      -0.692406       -18.8413 
  37   2.0000      -0.661661       -18.0047 
  38   2.0000      -0.641444       -17.4546 
  39   2.0000      -0.625906       -17.0318 
  40   2.0000      -0.599963       -16.3258 
  41   2.0000      -0.573409       -15.6033 
  42   2.0000      -0.568211       -15.4618 
  43   2.0000      -0.555978       -15.1289 
  44   2.0000      -0.528423       -14.3791 
  45   2.0000      -0.522389       -14.2149 
  46   2.0000      -0.519172       -14.1274 
  47   2.0000      -0.514138       -13.9904 
  48   2.0000      -0.502947       -13.6859 
  49   2.0000      -0.499593       -13.5946 
  50   2.0000      -0.493927       -13.4404 
  51   2.0000      -0.484686       -13.1890 
  52   2.0000      -0.476188       -12.9577 
  53   2.0000      -0.466188       -12.6856 
  54   2.0000      -0.462173       -12.5764 
  55   2.0000      -0.458586       -12.4787 
  56   2.0000      -0.450841       -12.2680 
  57   2.0000      -0.441744       -12.0205 
  58   2.0000      -0.434221       -11.8157 
  59   2.0000      -0.424930       -11.5629 
  60   2.0000      -0.415745       -11.3130 
  61   2.0000      -0.412064       -11.2128 
  62   2.0000      -0.410939       -11.1822 
  63   2.0000      -0.356385        -9.6977 
  64   2.0000      -0.331750        -9.0274 
  65   2.0000      -0.327083        -8.9004 
  66   2.0000      -0.284865        -7.7516 
  67   0.0000       0.018830         0.5124 
  68   0.0000       0.084843         2.3087 
  69   0.0000       0.101567         2.7638 
  70   0.0000       0.121650         3.3103 
  71   0.0000       0.122824         3.3422 
  72   0.0000       0.137742         3.7482 
  73   0.0000       0.151795         4.1305 
  74   0.0000       0.161121         4.3843 
  75   0.0000       0.163631         4.4526 
  76   0.0000       0.171989         4.6800 
  77   0.0000       0.175751         4.7824 
  78   0.0000       0.189710         5.1623 
  79   0.0000       0.191790         5.2189 
  80   0.0000       0.197583         5.3765 
  81   0.0000       0.204534         5.5657 
  82   0.0000       0.208010         5.6602 
  83   0.0000       0.213192         5.8012 
  84   0.0000       0.219000         5.9593 
  85   0.0000       0.222519         6.0551 
  86   0.0000       0.236156         6.4261 
  87   0.0000       0.241338         6.5671 
  88   0.0000       0.247892         6.7455 
  89   0.0000       0.252864         6.8808 
  90   0.0000       0.256153         6.9703 
  91   0.0000       0.271416         7.3856 
  92   0.0000       0.284125         7.7314 
  93   0.0000       0.294072         8.0021 
  94   0.0000       0.300044         8.1646 
  95   0.0000       0.310273         8.4429 
  96   0.0000       0.330789         9.0012 
  97   0.0000       0.335916         9.1407 
  98   0.0000       0.361172         9.8280 
  99   0.0000       0.370300        10.0764 
 100   0.0000       0.375480        10.2173 
 101   0.0000       0.394308        10.7297 
 102   0.0000       0.410346        11.1661 
 103   0.0000       0.425969        11.5912 
 104   0.0000       0.429607        11.6902 
 105   0.0000       0.439271        11.9532 
 106   0.0000       0.455937        12.4067 
 107   0.0000       0.482485        13.1291 
 108   0.0000       0.483866        13.1667 
 109   0.0000       0.494315        13.4510 
 110   0.0000       0.500677        13.6241 
 111   0.0000       0.508882        13.8474 
 112   0.0000       0.513246        13.9661 
 113   0.0000       0.523897        14.2560 
 114   0.0000       0.535094        14.5606 
 115   0.0000       0.539153        14.6711 
 116   0.0000       0.551666        15.0116 
 117   0.0000       0.559071        15.2131 
 118   0.0000       0.573098        15.5948 
 119   0.0000       0.578055        15.7297 
 120   0.0000       0.584984        15.9182 
 121   0.0000       0.589922        16.0526 
 122   0.0000       0.597473        16.2581 
 123   0.0000       0.606479        16.5031 
 124   0.0000       0.619764        16.8646 
 125   0.0000       0.621893        16.9226 
 126   0.0000       0.629162        17.1204 
 127   0.0000       0.645240        17.5579 
 128   0.0000       0.662749        18.0343 
 129   0.0000       0.666840        18.1456 
 130   0.0000       0.674181        18.3454 
 131   0.0000       0.681869        18.5546 
 132   0.0000       0.688050        18.7228 
 133   0.0000       0.692252        18.8371 
 134   0.0000       0.698661        19.0115 
 135   0.0000       0.704530        19.1712 
 136   0.0000       0.713369        19.4118 
 137   0.0000       0.726065        19.7572 
 138   0.0000       0.727740        19.8028 
 139   0.0000       0.733915        19.9709 
 140   0.0000       0.742122        20.1942 
 141   0.0000       0.742857        20.2142 
 142   0.0000       0.750403        20.4195 
 143   0.0000       0.758835        20.6489 
 144   0.0000       0.760735        20.7007 
 145   0.0000       0.763844        20.7852 
 146   0.0000       0.770248        20.9595 
 147   0.0000       0.771740        21.0001 
 148   0.0000       0.775263        21.0960 
 149   0.0000       0.780535        21.2394 
 150   0.0000       0.783796        21.3282 
 151   0.0000       0.791682        21.5428 
 152   0.0000       0.793005        21.5787 
 153   0.0000       0.797093        21.6900 
 154   0.0000       0.802095        21.8261 
 155   0.0000       0.805455        21.9176 
 156   0.0000       0.811024        22.0691 
 157   0.0000       0.812942        22.1213 
 158   0.0000       0.817624        22.2487 
 159   0.0000       0.823965        22.4212 
 160   0.0000       0.834940        22.7199 
 161   0.0000       0.837831        22.7985 
 162   0.0000       0.838650        22.8208 
 163   0.0000       0.853963        23.2375 
 164   0.0000       0.859376        23.3848 
 165   0.0000       0.870001        23.6739 
 166   0.0000       0.875483        23.8231 
 167   0.0000       0.894524        24.3412 
 168   0.0000       0.899041        24.4642 
 169   0.0000       0.914938        24.8967 
 170   0.0000       0.921520        25.0758 
 171   0.0000       0.926399        25.2086 
 172   0.0000       0.949901        25.8481 
 173   0.0000       0.959184        26.1007 
 174   0.0000       0.966840        26.3091 
 175   0.0000       0.982311        26.7300 
 176   0.0000       0.999256        27.1911 
 177   0.0000       1.006633        27.3919 
 178   0.0000       1.018099        27.7039 
 179   0.0000       1.036208        28.1966 
 180   0.0000       1.053314        28.6621 
 181   0.0000       1.057239        28.7689 
 182   0.0000       1.090866        29.6840 
 183   0.0000       1.113976        30.3128 
 184   0.0000       1.126132        30.6436 
 185   0.0000       1.139934        31.0192 
 186   0.0000       1.155580        31.4449 
 187   0.0000       1.171494        31.8780 
 188   0.0000       1.189655        32.3721 
 189   0.0000       1.202304        32.7164 
 190   0.0000       1.216614        33.1058 
 191   0.0000       1.245075        33.8802 
 192   0.0000       1.275313        34.7030 
 193   0.0000       1.289994        35.1025 
 194   0.0000       1.303711        35.4758 
 195   0.0000       1.305582        35.5267 
 196   0.0000       1.315125        35.7864 
 197   0.0000       1.342596        36.5339 
 198   0.0000       1.373485        37.3744 
 199   0.0000       1.382250        37.6129 
 200   0.0000       1.388110        37.7724 
 201   0.0000       1.395052        37.9613 
 202   0.0000       1.417794        38.5801 
 203   0.0000       1.433179        38.9988 
 204   0.0000       1.442076        39.2409 
 205   0.0000       1.457137        39.6507 
 206   0.0000       1.461495        39.7693 
 207   0.0000       1.485263        40.4161 
 208   0.0000       1.498860        40.7861 
 209   0.0000       1.543387        41.9977 
 210   0.0000       1.570141        42.7257 
 211   0.0000       1.594900        43.3994 
 212   0.0000       1.621693        44.1285 
 213   0.0000       1.636525        44.5321 
 214   0.0000       1.642854        44.7043 
 215   0.0000       1.663376        45.2628 
 216   0.0000       1.670735        45.4630 
 217   0.0000       1.677017        45.6340 
 218   0.0000       1.738559        47.3086 
 219   0.0000       1.760658        47.9099 
 220   0.0000       1.787725        48.6465 
 221   0.0000       1.794333        48.8263 
 222   0.0000       1.801516        49.0217 
 223   0.0000       1.810707        49.2718 
 224   0.0000       1.814920        49.3865 
 225   0.0000       1.826654        49.7058 
 226   0.0000       1.833741        49.8986 
 227   0.0000       1.838584        50.0304 
 228   0.0000       1.843703        50.1697 
 229   0.0000       1.849366        50.3238 
 230   0.0000       1.853911        50.4475 
 231   0.0000       1.866869        50.8001 
 232   0.0000       1.875177        51.0262 
 233   0.0000       1.883322        51.2478 
 234   0.0000       1.887623        51.3648 
 235   0.0000       1.909060        51.9482 
 236   0.0000       1.915486        52.1230 
 237   0.0000       1.916996        52.1641 
 238   0.0000       1.921453        52.2854 
 239   0.0000       1.924836        52.3775 
 240   0.0000       1.942914        52.8694 
 241   0.0000       1.964060        53.4448 
 242   0.0000       1.969580        53.5950 
 243   0.0000       1.977580        53.8127 
 244   0.0000       1.988308        54.1046 
 245   0.0000       1.992899        54.2295 
 246   0.0000       2.005662        54.5768 
 247   0.0000       2.023143        55.0525 
 248   0.0000       2.039087        55.4864 
 249   0.0000       2.042765        55.5865 
 250   0.0000       2.054351        55.9017 
 251   0.0000       2.060616        56.0722 
 252   0.0000       2.079777        56.5936 
 253   0.0000       2.082771        56.6751 
 254   0.0000       2.087993        56.8172 
 255   0.0000       2.104061        57.2544 
 256   0.0000       2.112814        57.4926 
 257   0.0000       2.129779        57.9542 
 258   0.0000       2.144190        58.3464 
 259   0.0000       2.147497        58.4364 
 260   0.0000       2.174530        59.1720 
 261   0.0000       2.182605        59.3917 
 262   0.0000       2.194241        59.7083 
 263   0.0000       2.203014        59.9471 
 264   0.0000       2.219119        60.3853 
 265   0.0000       2.244251        61.0692 
 266   0.0000       2.246089        61.1192 
 267   0.0000       2.252658        61.2979 
 268   0.0000       2.288715        62.2791 
 269   0.0000       2.298746        62.5521 
 270   0.0000       2.316748        63.0419 
 271   0.0000       2.335651        63.5563 
 272   0.0000       2.373263        64.5798 
 273   0.0000       2.390585        65.0511 
 274   0.0000       2.403496        65.4024 
 275   0.0000       2.415384        65.7260 
 276   0.0000       2.416419        65.7541 
 277   0.0000       2.453543        66.7643 
 278   0.0000       2.458387        66.8961 
 279   0.0000       2.464408        67.0599 
 280   0.0000       2.478553        67.4449 
 281   0.0000       2.505470        68.1773 
 282   0.0000       2.520584        68.5886 
 283   0.0000       2.539760        69.1104 
 284   0.0000       2.544619        69.2426 
 285   0.0000       2.552183        69.4484 
 286   0.0000       2.573736        70.0349 
 287   0.0000       2.598659        70.7131 
 288   0.0000       2.612340        71.0854 
 289   0.0000       2.624106        71.4056 
 290   0.0000       2.646037        72.0023 
 291   0.0000       2.674965        72.7895 
 292   0.0000       2.683338        73.0173 
 293   0.0000       2.708332        73.6975 
 294   0.0000       2.717202        73.9388 
 295   0.0000       2.725533        74.1655 
 296   0.0000       2.741951        74.6123 
 297   0.0000       2.753678        74.9314 
 298   0.0000       2.776432        75.5505 
 299   0.0000       2.802089        76.2487 
 300   0.0000       2.819296        76.7169 
 301   0.0000       2.853230        77.6403 
 302   0.0000       2.856847        77.7387 
 303   0.0000       2.916376        79.3586 
 304   0.0000       2.944444        80.1224 
 305   0.0000       2.954156        80.3867 
 306   0.0000       2.978996        81.0626 
 307   0.0000       3.022554        82.2479 
 308   0.0000       3.035369        82.5966 
 309   0.0000       3.051013        83.0223 
 310   0.0000       3.064634        83.3929 
 311   0.0000       3.087202        84.0070 
 312   0.0000       3.099947        84.3538 
 313   0.0000       3.121361        84.9365 
 314   0.0000       3.133834        85.2760 
 315   0.0000       3.143824        85.5478 
 316   0.0000       3.180452        86.5445 
 317   0.0000       3.231615        87.9367 
 318   0.0000       3.263622        88.8077 
 319   0.0000       3.314681        90.1971 
 320   0.0000       3.378316        91.9286 
 321   0.0000       3.458516        94.1110 

                    ********************************
                    * MULLIKEN POPULATION ANALYSIS *
                    ********************************

-----------------------
MULLIKEN ATOMIC CHARGES
-----------------------
   0 S :    0.104239
   1 C :   -0.150351
   2 C :   -0.071406
   3 C :    0.013796
   4 C :   -0.105905
   5 H :   -0.036364
   6 C :    0.090168
   7 H :    0.024085
   8 H :    0.006855
   9 C :   -0.079895
  10 H :    0.025328
  11 H :    0.033407
  12 C :   -0.051930
  13 H :    0.037294
  14 H :    0.033824
  15 H :    0.022876
  16 S :    0.083317
  17 C :   -0.101957
  18 C :   -0.037558
  19 C :   -0.054174
  20 C :   -0.101979
  21 H :    0.021665
  22 C :    0.107956
  23 H :   -0.005462
  24 H :    0.022795
  25 C :   -0.117566
  26 H :    0.035163
  27 H :    0.053031
  28 C :   -0.058493
  29 H :    0.037913
  30 H :    0.029391
  31 H :    0.043612
  32 H :    0.074727
  33 H :    0.071597
Sum of atomic charges:    0.0000000

--------------------------------
MULLIKEN REDUCED ORBITAL CHARGES
--------------------------------
  0 S s       :     5.844320  s :     5.844320
      pz      :     3.631194  p :     9.941582
      px      :     3.149738
      py      :     3.160649
      dz2     :     0.014302  d :     0.109860
      dxz     :     0.018191
      dyz     :     0.015741
      dx2y2   :     0.045711
      dxy     :     0.015914
  1 C s       :     3.202311  s :     3.202311
      pz      :     1.096720  p :     2.915172
      px      :     0.847200
      py      :     0.971252
      dz2     :     0.002838  d :     0.032868
      dxz     :     0.004950
      dyz     :     0.005711
      dx2y2   :     0.011559
      dxy     :     0.007811
  2 C s       :     3.070590  s :     3.070590
      pz      :     0.986370  p :     2.955717
      px      :     0.994179
      py      :     0.975168
      dz2     :     0.004096  d :     0.045099
      dxz     :     0.007415
      dyz     :     0.007928
      dx2y2   :     0.012806
      dxy     :     0.012853
  3 C s       :     3.200884  s :     3.200884
      pz      :     1.015489  p :     2.749392
      px      :     0.927146
      py      :     0.806757
      dz2     :     0.003360  d :     0.035928
      dxz     :     0.007466
      dyz     :     0.003784
      dx2y2   :     0.010865
      dxy     :     0.010453
  4 C s       :     3.040647  s :     3.040647
      pz      :     1.086161  p :     3.018824
      px      :     0.992050
      py      :     0.940613
      dz2     :     0.003990  d :     0.046434
      dxz     :     0.008196
      dyz     :     0.007532
      dx2y2   :     0.016900
      dxy     :     0.009817
  5 H s       :     1.010370  s :     1.010370
      pz      :     0.006174  p :     0.025994
      px      :     0.003723
      py      :     0.016097
  6 C s       :     2.940278  s :     2.940278
      pz      :     0.996763  p :     2.934154
      px      :     0.968835
      py      :     0.968557
      dz2     :     0.006128  d :     0.035400
      dxz     :     0.007105
      dyz     :     0.006918
      dx2y2   :     0.006128
      dxy     :     0.009120
  7 H s       :     0.951586  s :     0.951586
      pz      :     0.008920  p :     0.024330
      px      :     0.006633
      py      :     0.008777
  8 H s       :     0.969059  s :     0.969059
      pz      :     0.004703  p :     0.024086
      px      :     0.007786
      py      :     0.011597
  9 C s       :     3.074274  s :     3.074274
      pz      :     0.986336  p :     2.971453
      px      :     0.981260
      py      :     1.003857
      dz2     :     0.006613  d :     0.034168
      dxz     :     0.006737
      dyz     :     0.006612
      dx2y2   :     0.005111
      dxy     :     0.009096
 10 H s       :     0.950340  s :     0.950340
      pz      :     0.005103  p :     0.024332
      px      :     0.007925
      py      :     0.011305
 11 H s       :     0.944143  s :     0.944143
      pz      :     0.008553  p :     0.022450
      px      :     0.005907
      py      :     0.007990
 12 C s       :     3.009543  s :     3.009543
      pz      :     1.034686  p :     3.014691
      px      :     0.963074
      py      :     1.016931
      dz2     :     0.009385  d :     0.027696
      dxz     :     0.003567
      dyz     :     0.001308
      dx2y2   :     0.005901
      dxy     :     0.007536
 13 H s       :     0.939832  s :     0.939832
      pz      :     0.005957  p :     0.022873
      px      :     0.008706
      py      :     0.008209
 14 H s       :     0.942258  s :     0.942258
      pz      :     0.006164  p :     0.023918
      px      :     0.004746
      py      :     0.013008
 15 H s       :     0.952196  s :     0.952196
      pz      :     0.014390  p :     0.024928
      px      :     0.004650
      py      :     0.005887
 16 S s       :     5.843510  s :     5.843510
      pz      :     3.477780  p :     9.965607
      px      :     3.106867
      py      :     3.380959
      dz2     :     0.017633  d :     0.107567
      dxz     :     0.019518
      dyz     :     0.017293
      dx2y2   :     0.014677
      dxy     :     0.038445
 17 C s       :     3.170215  s :     3.170215
      pz      :     1.067728  p :     2.896855
      px      :     0.908426
      py      :     0.920701
      dz2     :     0.003364  d :     0.034887
      dxz     :     0.003961
      dyz     :     0.006873
      dx2y2   :     0.008029
      dxy     :     0.012660
 18 C s       :     3.184357  s :     3.184357
      pz      :     0.994749  p :     2.817967
      px      :     0.946520
      py      :     0.876698
      dz2     :     0.005589  d :     0.035233
      dxz     :     0.005229
      dyz     :     0.005741
      dx2y2   :     0.008307
      dxy     :     0.010367
 19 C s       :     3.068673  s :     3.068673
      pz      :     1.002748  p :     2.944198
      px      :     0.958226
      py      :     0.983224
      dz2     :     0.005109  d :     0.041303
      dxz     :     0.006611
      dyz     :     0.007546
      dx2y2   :     0.012249
      dxy     :     0.009788
 20 C s       :     3.072678  s :     3.072678
      pz      :     1.020307  p :     2.988669
      px      :     0.979914
      py      :     0.988448
      dz2     :     0.004930  d :     0.040632
      dxz     :     0.006657
      dyz     :     0.008345
      dx2y2   :     0.007983
      dxy     :     0.012718
 21 H s       :     0.955019  s :     0.955019
      pz      :     0.005039  p :     0.023316
      px      :     0.006879
      py      :     0.011398
 22 C s       :     2.904140  s :     2.904140
      pz      :     1.023804  p :     2.951695
      px      :     0.974672
      py      :     0.953219
      dz2     :     0.005243  d :     0.036208
      dxz     :     0.009047
      dyz     :     0.007535
      dx2y2   :     0.004152
      dxy     :     0.010230
 23 H s       :     0.978401  s :     0.978401
      pz      :     0.012053  p :     0.027061
      px      :     0.008579
      py      :     0.006429
 24 H s       :     0.954087  s :     0.954087
      pz      :     0.006120  p :     0.023118
      px      :     0.008526
      py      :     0.008472
 25 C s       :     3.108393  s :     3.108393
      pz      :     1.021995  p :     2.975592
      px      :     0.975232
      py      :     0.978365
      dz2     :     0.003362  d :     0.033581
      dxz     :     0.009058
      dyz     :     0.008334
      dx2y2   :     0.003583
      dxy     :     0.009243
 26 H s       :     0.943431  s :     0.943431
      pz      :     0.007974  p :     0.021406
      px      :     0.006539
      py      :     0.006893
 27 H s       :     0.924979  s :     0.924979
      pz      :     0.006423  p :     0.021990
      px      :     0.008282
      py      :     0.007285
 28 C s       :     3.035425  s :     3.035425
      pz      :     1.021959  p :     2.996618
      px      :     0.999323
      py      :     0.975336
      dz2     :     0.003350  d :     0.026450
      dxz     :     0.006667
      dyz     :     0.005476
      dx2y2   :     0.003213
      dxy     :     0.007743
 29 H s       :     0.937791  s :     0.937791
      pz      :     0.008101  p :     0.024295
      px      :     0.010412
      py      :     0.005783
 30 H s       :     0.946513  s :     0.946513
      pz      :     0.011102  p :     0.024096
      px      :     0.005998
      py      :     0.006995
 31 H s       :     0.933573  s :     0.933573
      pz      :     0.004821  p :     0.022815
      px      :     0.007959
      py      :     0.010035
 32 H s       :     0.903470  s :     0.903470
      pz      :     0.005964  p :     0.021803
      px      :     0.006625
      py      :     0.009214
 33 H s       :     0.904926  s :     0.904926
      pz      :     0.006827  p :     0.023477
      px      :     0.013541
      py      :     0.003110


                     *******************************
                     * LOEWDIN POPULATION ANALYSIS *
                     *******************************

----------------------
LOEWDIN ATOMIC CHARGES
----------------------
   0 S :    0.410600
   1 C :   -0.206465
   2 C :   -0.060556
   3 C :   -0.072161
   4 C :   -0.192657
   5 H :    0.026891
   6 C :   -0.022746
   7 H :    0.026898
   8 H :    0.023256
   9 C :   -0.028651
  10 H :    0.016145
  11 H :    0.025680
  12 C :   -0.078745
  13 H :    0.032369
  14 H :    0.026722
  15 H :    0.026419
  16 S :    0.397549
  17 C :   -0.191792
  18 C :   -0.073833
  19 C :   -0.054923
  20 C :   -0.179875
  21 H :    0.031940
  22 C :   -0.033189
  23 H :    0.015930
  24 H :    0.036087
  25 C :   -0.041248
  26 H :    0.026914
  27 H :    0.024576
  28 C :   -0.061760
  29 H :    0.023495
  30 H :    0.020737
  31 H :    0.028266
  32 H :    0.042338
  33 H :    0.035785

-------------------------------
LOEWDIN REDUCED ORBITAL CHARGES
-------------------------------
  0 S s       :     5.492896  s :     5.492896
      pz      :     3.591279  p :     9.960213
      px      :     3.162002
      py      :     3.206932
      dz2     :     0.017450  d :     0.136291
      dxz     :     0.021724
      dyz     :     0.018066
      dx2y2   :     0.060124
      dxy     :     0.018927
  1 C s       :     2.951195  s :     2.951195
      pz      :     1.109966  p :     3.179050
      px      :     0.996377
      py      :     1.072707
      dz2     :     0.005605  d :     0.076220
      dxz     :     0.009870
      dyz     :     0.011001
      dx2y2   :     0.029182
      dxy     :     0.020562
  2 C s       :     2.853358  s :     2.853358
      pz      :     0.977555  p :     3.093715
      px      :     1.049490
      py      :     1.066670
      dz2     :     0.009098  d :     0.113483
      dxz     :     0.015939
      dyz     :     0.016698
      dx2y2   :     0.036328
      dxy     :     0.035419
  3 C s       :     2.847399  s :     2.847399
      pz      :     1.030172  p :     3.127907
      px      :     1.047446
      py      :     1.050289
      dz2     :     0.007925  d :     0.096855
      dxz     :     0.016879
      dyz     :     0.007563
      dx2y2   :     0.032063
      dxy     :     0.032426
  4 C s       :     2.897864  s :     2.897864
      pz      :     1.070646  p :     3.183856
      px      :     1.083910
      py      :     1.029300
      dz2     :     0.008379  d :     0.110937
      dxz     :     0.016446
      dyz     :     0.015435
      dx2y2   :     0.043410
      dxy     :     0.027267
  5 H s       :     0.899016  s :     0.899016
      pz      :     0.018350  p :     0.074093
      px      :     0.012249
      py      :     0.043494
  6 C s       :     2.819937  s :     2.819937
      pz      :     1.039414  p :     3.113891
      px      :     1.027860
      py      :     1.046616
      dz2     :     0.014368  d :     0.088917
      dxz     :     0.016169
      dyz     :     0.018446
      dx2y2   :     0.016225
      dxy     :     0.023710
  7 H s       :     0.901784  s :     0.901784
      pz      :     0.027324  p :     0.071317
      px      :     0.020189
      py      :     0.023805
  8 H s       :     0.904357  s :     0.904357
      pz      :     0.016073  p :     0.072387
      px      :     0.022991
      py      :     0.033322
  9 C s       :     2.840551  s :     2.840551
      pz      :     1.021465  p :     3.106457
      px      :     1.030753
      py      :     1.054238
      dz2     :     0.014468  d :     0.081644
      dxz     :     0.014748
      dyz     :     0.017655
      dx2y2   :     0.013282
      dxy     :     0.021490
 10 H s       :     0.908410  s :     0.908410
      pz      :     0.017252  p :     0.075445
      px      :     0.025031
      py      :     0.033163
 11 H s       :     0.907887  s :     0.907887
      pz      :     0.026709  p :     0.066433
      px      :     0.018014
      py      :     0.021710
 12 C s       :     2.837959  s :     2.837959
      pz      :     1.082492  p :     3.170474
      px      :     1.024369
      py      :     1.063613
      dz2     :     0.023537  d :     0.070312
      dxz     :     0.008851
      dyz     :     0.003434
      dx2y2   :     0.015901
      dxy     :     0.018590
 13 H s       :     0.904754  s :     0.904754
      pz      :     0.014821  p :     0.062877
      px      :     0.025722
      py      :     0.022334
 14 H s       :     0.907015  s :     0.907015
      pz      :     0.015919  p :     0.066263
      px      :     0.014405
      py      :     0.035938
 15 H s       :     0.904728  s :     0.904728
      pz      :     0.039899  p :     0.068853
      px      :     0.013957
      py      :     0.014998
 16 S s       :     5.509811  s :     5.509811
      pz      :     3.455690  p :     9.960902
      px      :     3.102712
      py      :     3.402500
      dz2     :     0.021042  d :     0.131738
      dxz     :     0.025396
      dyz     :     0.019495
      dx2y2   :     0.016323
      dxy     :     0.049482
 17 C s       :     2.934932  s :     2.934932
      pz      :     1.082341  p :     3.174992
      px      :     1.044610
      py      :     1.048040
      dz2     :     0.006621  d :     0.081868
      dxz     :     0.007633
      dyz     :     0.015028
      dx2y2   :     0.020685
      dxy     :     0.031901
 18 C s       :     2.872012  s :     2.872012
      pz      :     1.017934  p :     3.109945
      px      :     1.031963
      py      :     1.060048
      dz2     :     0.012319  d :     0.091875
      dxz     :     0.013010
      dyz     :     0.013141
      dx2y2   :     0.024779
      dxy     :     0.028627
 19 C s       :     2.864958  s :     2.864958
      pz      :     1.005281  p :     3.087143
      px      :     1.039827
      py      :     1.042035
      dz2     :     0.011290  d :     0.102821
      dxz     :     0.015315
      dyz     :     0.015986
      dx2y2   :     0.033466
      dxy     :     0.026764
 20 C s       :     2.927209  s :     2.927209
      pz      :     1.056476  p :     3.157442
      px      :     1.035366
      py      :     1.065600
      dz2     :     0.010459  d :     0.095224
      dxz     :     0.013271
      dyz     :     0.017388
      dx2y2   :     0.022017
      dxy     :     0.032089
 21 H s       :     0.899772  s :     0.899772
      pz      :     0.015223  p :     0.068288
      px      :     0.020972
      py      :     0.032092
 22 C s       :     2.807415  s :     2.807415
      pz      :     1.059359  p :     3.134084
      px      :     1.049573
      py      :     1.025152
      dz2     :     0.012350  d :     0.091690
      dxz     :     0.023858
      dyz     :     0.018576
      dx2y2   :     0.008950
      dxy     :     0.027957
 23 H s       :     0.901702  s :     0.901702
      pz      :     0.036328  p :     0.082368
      px      :     0.025719
      py      :     0.020321
 24 H s       :     0.897172  s :     0.897172
      pz      :     0.018230  p :     0.066741
      px      :     0.024066
      py      :     0.024444
 25 C s       :     2.860608  s :     2.860608
      pz      :     1.046731  p :     3.101606
      px      :     1.028424
      py      :     1.026450
      dz2     :     0.006425  d :     0.079034
      dxz     :     0.022217
      dyz     :     0.020372
      dx2y2   :     0.006276
      dxy     :     0.023745
 26 H s       :     0.910185  s :     0.910185
      pz      :     0.024183  p :     0.062901
      px      :     0.018649
      py      :     0.020068
 27 H s       :     0.909118  s :     0.909118
      pz      :     0.019784  p :     0.066306
      px      :     0.024899
      py      :     0.021622
 28 C s       :     2.843600  s :     2.843600
      pz      :     1.070433  p :     3.152150
      px      :     1.052907
      py      :     1.028811
      dz2     :     0.008287  d :     0.066010
      dxz     :     0.016360
      dyz     :     0.014104
      dx2y2   :     0.006476
      dxy     :     0.020783
 29 H s       :     0.905663  s :     0.905663
      pz      :     0.023585  p :     0.070843
      px      :     0.030251
      py      :     0.017007
 30 H s       :     0.910699  s :     0.910699
      pz      :     0.031957  p :     0.068563
      px      :     0.016736
      py      :     0.019871
 31 H s       :     0.907272  s :     0.907272
      pz      :     0.013360  p :     0.064462
      px      :     0.021957
      py      :     0.029145
 32 H s       :     0.890136  s :     0.890136
      pz      :     0.018532  p :     0.067525
      px      :     0.022213
      py      :     0.026780
 33 H s       :     0.890905  s :     0.890905
      pz      :     0.021457  p :     0.073310
      px      :     0.040533
      py      :     0.011320


                      *****************************
                      * MAYER POPULATION ANALYSIS *
                      *****************************

  NA   - Mulliken gross atomic population
  ZA   - Total nuclear charge
  QA   - Mulliken gross atomic charge
  VA   - Mayer's total valence
  BVA  - Mayer's bonded valence
  FA   - Mayer's free valence

  ATOM       NA         ZA         QA         VA         BVA        FA
  0 S     15.8958    16.0000     0.1042     2.4928     2.4928     0.0000
  1 C      6.1504     6.0000    -0.1504     3.8309     3.8309     0.0000
  2 C      6.0714     6.0000    -0.0714     4.0286     4.0286     0.0000
  3 C      5.9862     6.0000     0.0138     3.9287     3.9287    -0.0000
  4 C      6.1059     6.0000    -0.1059     3.9046     3.9046     0.0000
  5 H      1.0364     1.0000    -0.0364     1.0167     1.0167    -0.0000
  6 C      5.9098     6.0000     0.0902     3.9515     3.9515     0.0000
  7 H      0.9759     1.0000     0.0241     0.9820     0.9820     0.0000
  8 H      0.9931     1.0000     0.0069     0.9960     0.9960     0.0000
  9 C      6.0799     6.0000    -0.0799     4.0551     4.0551     0.0000
 10 H      0.9747     1.0000     0.0253     0.9891     0.9891     0.0000
 11 H      0.9666     1.0000     0.0334     0.9778     0.9778     0.0000
 12 C      6.0519     6.0000    -0.0519     3.9847     3.9847     0.0000
 13 H      0.9627     1.0000     0.0373     0.9914     0.9914    -0.0000
 14 H      0.9662     1.0000     0.0338     0.9868     0.9868     0.0000
 15 H      0.9771     1.0000     0.0229     0.9859     0.9859     0.0000
 16 S     15.9167    16.0000     0.0833     2.5021     2.5021    -0.0000
 17 C      6.1020     6.0000    -0.1020     3.8268     3.8268     0.0000
 18 C      6.0376     6.0000    -0.0376     3.9383     3.9383     0.0000
 19 C      6.0542     6.0000    -0.0542     4.0204     4.0204     0.0000
 20 C      6.1020     6.0000    -0.1020     3.8976     3.8976     0.0000
 21 H      0.9783     1.0000     0.0217     0.9955     0.9955     0.0000
 22 C      5.8920     6.0000     0.1080     3.9516     3.9516     0.0000
 23 H      1.0055     1.0000    -0.0055     1.0045     1.0045     0.0000
 24 H      0.9772     1.0000     0.0228     0.9904     0.9904     0.0000
 25 C      6.1176     6.0000    -0.1176     4.0554     4.0554    -0.0000
 26 H      0.9648     1.0000     0.0352     0.9745     0.9745    -0.0000
 27 H      0.9470     1.0000     0.0530     0.9819     0.9819    -0.0000
 28 C      6.0585     6.0000    -0.0585     3.9948     3.9948    -0.0000
 29 H      0.9621     1.0000     0.0379     0.9867     0.9867    -0.0000
 30 H      0.9706     1.0000     0.0294     0.9942     0.9942    -0.0000
 31 H      0.9564     1.0000     0.0436     0.9868     0.9868    -0.0000
 32 H      0.9253     1.0000     0.0747     0.9973     0.9973    -0.0000
 33 H      0.9284     1.0000     0.0716     0.9932     0.9932    -0.0000

  Mayer bond orders larger than 0.100000
B(  0-S ,  1-C ) :   1.1376 B(  0-S ,  4-C ) :   1.1580 B(  1-C ,  2-C ) :   1.5834 
B(  1-C , 32-H ) :   0.9611 B(  2-C ,  3-C ) :   1.2405 B(  2-C ,  6-C ) :   1.0595 
B(  3-C ,  4-C ) :   1.5683 B(  3-C ,  5-H ) :   0.9976 B(  4-C , 20-C ) :   1.0408 
B(  6-C ,  7-H ) :   0.9351 B(  6-C ,  8-H ) :   0.9401 B(  6-C ,  9-C ) :   1.0374 
B(  9-C , 10-H ) :   0.9644 B(  9-C , 11-H ) :   0.9639 B(  9-C , 12-C ) :   1.0660 
B( 12-C , 13-H ) :   0.9754 B( 12-C , 14-H ) :   0.9764 B( 12-C , 15-H ) :   0.9754 
B( 16-S , 17-C ) :   1.1578 B( 16-S , 20-C ) :   1.1539 B( 17-C , 18-C ) :   1.5767 
B( 17-C , 20-C ) :   0.1049 B( 17-C , 33-H ) :   0.9707 B( 18-C , 19-C ) :   1.2655 
B( 18-C , 21-H ) :   0.9900 B( 19-C , 20-C ) :   1.5482 B( 19-C , 22-C ) :   1.0545 
B( 22-C , 23-H ) :   0.9245 B( 22-C , 24-H ) :   0.9267 B( 22-C , 25-C ) :   1.0523 
B( 25-C , 26-H ) :   0.9567 B( 25-C , 27-H ) :   0.9552 B( 25-C , 28-C ) :   1.0633 
B( 28-C , 29-H ) :   0.9773 B( 28-C , 30-H ) :   0.9785 B( 28-C , 31-H ) :   0.9800 


-------
TIMINGS
-------

Total SCF time: 0 days 0 hours 0 min 26 sec 

Total time                  ....      26.828 sec
Sum of individual times     ....      25.901 sec  ( 96.5%)

Fock matrix formation       ....      24.119 sec  ( 89.9%)
  XC integration            ....       1.641 sec  (  6.8% of F)
    Basis function eval.    ....       0.209 sec  ( 12.7% of XC)
    Density eval.           ....       0.149 sec  (  9.1% of XC)
    XC-Functional eval.     ....       0.169 sec  ( 10.3% of XC)
    XC-Potential eval.      ....       0.182 sec  ( 11.1% of XC)
Diagonalization             ....       0.133 sec  (  0.5%)
Density matrix formation    ....       0.016 sec  (  0.1%)
Population analysis         ....       0.051 sec  (  0.2%)
Initial guess               ....       0.194 sec  (  0.7%)
Orbital Transformation      ....       0.000 sec  (  0.0%)
Orbital Orthonormalization  ....       0.000 sec  (  0.0%)
DIIS solution               ....       0.158 sec  (  0.6%)
SOSCF solution              ....       0.104 sec  (  0.4%)
Grid generation             ....       1.127 sec  (  4.2%)


-------------------------------------------------------------------------------
                          DFT DISPERSION CORRECTION                            
                                                                               
                              DFTD3 V3.1  Rev 1                                
                              USING zero damping                               
-------------------------------------------------------------------------------
The omegaB97X-D3 functional is recognized. Fit by Chai et al.
Active option DFTDOPT                   ...         3   

molecular C6(AA) [au] = 14175.519013 


            DFT-D V3
 parameters
 s6 scaling factor         :     1.0000 
 rs6 scaling factor        :     1.2810 
 s8 scaling factor         :     1.0000 
 rs8 scaling factor        :     1.0940 
 Damping factor alpha6     :    14.0000 
 Damping factor alpha8     :    16.0000 
 ad hoc parameters k1-k3   :    16.0000     1.3333    -4.0000 

 Edisp/kcal,au: -8.859375922679  -0.014118312701 
 E6   /kcal   :  -4.119207028 
 E8   /kcal   :  -4.740168895 
 % E8         :  53.504546326 

-------------------------   ----------------
Dispersion correction           -0.014118313
-------------------------   ----------------


-------------------------   --------------------
FINAL SINGLE POINT ENERGY     -1339.868152732849
-------------------------   --------------------


                            ***************************************
                            *     ORCA property calculations      *
                            ***************************************

                                    ---------------------
                                    Active property flags
                                    ---------------------
   (+) Dipole Moment


------------------------------------------------------------------------------
                       ORCA ELECTRIC PROPERTIES CALCULATION
------------------------------------------------------------------------------

Dipole Moment Calculation                       ... on
Quadrupole Moment Calculation                   ... off
Polarizability Calculation                      ... off
GBWName                                         ... config_2301.gbw
Electron density file                           ... config_2301.scfp
The origin for moment calculation is the CENTER OF MASS  = (128.546410, 43.848733 144.485376)

-------------
DIPOLE MOMENT
-------------
                                X             Y             Z
Electronic contribution:    -22.20945     -23.57800      -9.42504
Nuclear contribution   :     22.57604      24.24122       9.53683
                        -----------------------------------------
Total Dipole Moment    :      0.36658       0.66322       0.11179
                        -----------------------------------------
Magnitude (a.u.)       :      0.76599
Magnitude (Debye)      :      1.94699



--------------------
Rotational spectrum 
--------------------
 
Rotational constants in cm-1:     0.018017     0.009368     0.006388 
Rotational constants in MHz :   540.141724   280.835132   191.515224 

 Dipole components along the rotational axes: 
x,y,z [a.u.] :    -0.345618     0.682935    -0.029745 
x,y,z [Debye]:    -0.878491     1.735883    -0.075606 

 

Timings for individual modules:

Sum of individual times         ...       27.980 sec (=   0.466 min)
GTO integral calculation        ...        0.735 sec (=   0.012 min)   2.6 %
SCF iterations                  ...       27.245 sec (=   0.454 min)  97.4 %
                             ****ORCA TERMINATED NORMALLY****
TOTAL RUN TIME: 0 days 0 hours 0 minutes 28 seconds 739 msec
