
                                 *****************
                                 * O   R   C   A *
                                 *****************

           --- An Ab Initio, DFT and Semiempirical electronic structure package ---

                  #######################################################
                  #                        -***-                        #
                  #          Department of theory and spectroscopy      #
                  #               Directorship: Frank Neese             #
                  #        Max Planck Institute fuer Kohlenforschung    #
                  #                Kaiser Wilhelm Platz 1               #
                  #                 D-45470 Muelheim/Ruhr               #
                  #                      Germany                        #
                  #                                                     #
                  #                  All rights reserved                #
                  #                        -***-                        #
                  #######################################################


                         Program Version 4.2.1 -  RELEASE  -


 With contributions from (in alphabetic order):
   Daniel Aravena         : Magnetic Suceptibility
   Michael Atanasov       : Ab Initio Ligand Field Theory (pilot matlab implementation)
   Alexander A. Auer      : GIAO ZORA, VPT2
   Ute Becker             : Parallelization
   Giovanni Bistoni       : ED, misc. LED, open-shell LED, HFLD
   Martin Brehm           : Molecular dynamics
   Dmytro Bykov           : SCF Hessian
   Vijay G. Chilkuri      : MRCI spin determinant printing, contributions to CSF-ICE
   Dipayan Datta          : RHF DLPNO-CCSD density
   Achintya Kumar Dutta   : EOM-CC, STEOM-CC
   Dmitry Ganyushin       : Spin-Orbit,Spin-Spin,Magnetic field MRCI
   Miquel Garcia          : C-PCM Hessian, Gaussian charge scheme
   Yang Guo               : DLPNO-NEVPT2, CIM, IAO-localization
   Andreas Hansen         : Spin unrestricted coupled pair/coupled cluster methods
   Benjamin Helmich-Paris : CASSCF linear response (MC-RPA)
   Lee Huntington         : MR-EOM, pCC
   Robert Izsak           : Overlap fitted RIJCOSX, COSX-SCS-MP3, EOM
   Christian Kollmar      : KDIIS, OOCD, Brueckner-CCSD(T), CCSD density
   Simone Kossmann        : Meta GGA functionals, TD-DFT gradient, OOMP2, MP2 Hessian
   Martin Krupicka        : AUTO-CI
   Lucas Lang             : DCDCAS
   Dagmar Lenk            : GEPOL surface, SMD
   Dimitrios Liakos       : Extrapolation schemes; Compound Job, initial MDCI parallelization
   Dimitrios Manganas     : Further ROCIS development; embedding schemes
   Dimitrios Pantazis     : SARC Basis sets
   Taras Petrenko         : DFT Hessian,TD-DFT gradient, ASA, ECA, R-Raman, ABS, FL, XAS/XES, NRVS
   Peter Pinski           : DLPNO-MP2, DLPNO-MP2 Gradient
   Christoph Reimann      : Effective Core Potentials
   Marius Retegan         : Local ZFS, SOC
   Christoph Riplinger    : Optimizer, TS searches, QM/MM, DLPNO-CCSD(T), (RO)-DLPNO pert. Triples
   Tobias Risthaus        : Range-separated hybrids, TD-DFT gradient, RPA, STAB
   Michael Roemelt        : Original ROCIS implementation
   Masaaki Saitow         : Open-shell DLPNO-CCSD energy and density
   Barbara Sandhoefer     : DKH picture change effects
   Avijit Sen             : IP-ROCIS
   Kantharuban Sivalingam : CASSCF convergence, NEVPT2, FIC-MRCI
   Bernardo de Souza      : ESD, SOC TD-DFT
   Georgi Stoychev        : AutoAux, RI-MP2 NMR
   Willem Van den Heuvel  : Paramagnetic NMR
   Boris Wezisla          : Elementary symmetry handling
   Frank Wennmohs         : Technical directorship


 We gratefully acknowledge several colleagues who have allowed us to
 interface, adapt or use parts of their codes:
   Stefan Grimme, W. Hujo, H. Kruse,             : VdW corrections, initial TS optimization,
                  C. Bannwarth                     DFT functionals, gCP, sTDA/sTD-DF
   Ed Valeev, F. Pavosevic, A. Kumar             : LibInt (2-el integral package), F12 methods
   Garnet Chan, S. Sharma, J. Yang, R. Olivares  : DMRG
   Ulf Ekstrom                                   : XCFun DFT Library
   Mihaly Kallay                                 : mrcc  (arbitrary order and MRCC methods)
   Andreas Klamt, Michael Diedenhofen            : otool_cosmo (COSMO solvation model)
   Jiri Pittner, Ondrej Demel                    : Mk-CCSD
   Frank Weinhold                                : gennbo (NPA and NBO analysis)
   Christopher J. Cramer and Donald G. Truhlar   : smd solvation model
   Lars Goerigk                                  : TD-DFT with DH, B97 family of functionals
   V. Asgeirsson, H. Jonsson                     : NEB implementation
   FAccTs GmbH                                   : IRC, NEB, NEB-TS, Multilevel, MM, QM/MM, CI optimization
   S Lehtola, MJT Oliveira, MAL Marques          : LibXC Library


 Your calculation uses the libint2 library for the computation of 2-el integrals
 For citations please refer to: http://libint.valeyev.net

 Your ORCA version has been built with support for libXC version: 4.2.3
 For citations please refer to: https://tddft.org/programs/libxc/

 This ORCA versions uses:
   CBLAS   interface :  Fast vector & matrix operations
   LAPACKE interface :  Fast linear algebra routines
   SCALAPACK package :  Parallel linear algebra routines


Your calculation utilizes the atom-pairwise dispersion correction
with the zero-damping scheme (D30)
Cite in your paper:
S.Grimme, J.Antony, S.Ehrlich and H.Krieg, J.Chem.Phys., 132, (2010), 154104 
   

XCFun DFT library Copyright 2009-2010 Ulf Ekstrom and contributors.
See http://admol.org/xcfun for more information. This is free soft-
ware; see the source code for copying conditions. There is ABSOLUTELY
NO WARRANTY; not even for MERCHANTABILITY or FITNESS FOR A PARTICULAR
PURPOSE. For details see the documentation. Scientific users of this 
library should cite U. Ekstrom, L. Visscher, R. Bast, A. J. Thorvald-
sen and K. Ruud; J.Chem.Theor.Comp. 2010, DOI: 10.1021/ct100117s
XCFun Version 0.99 
----- Orbital basis set information -----
Your calculation utilizes the basis: def2-SVP
   F. Weigend and R. Ahlrichs, Phys. Chem. Chem. Phys. 7, 3297 (2005).

================================================================================
                                        WARNINGS
                       Please study these warnings very carefully!
================================================================================


INFO   : the flag for use of LIBINT has been found!

================================================================================
                                       INPUT FILE
================================================================================
NAME = config_3853.inp
|  1> ! wB97X-D3 SP def2-SVP
|  2> %pal
|  3> nprocs 16
|  4> end
|  5> 
|  6> * xyz 0 1
|  7> S 	 6.88241 	 -13.2703 	 77.2997 	 
|  8> C 	 5.35367 	 -12.4336 	 77.7 	 
|  9> C 	 4.77251 	 -11.9308 	 76.5921 	 
| 10> C 	 5.61966 	 -12.0115 	 75.4556 	 
| 11> C 	 6.86321 	 -12.5745 	 75.729 	 
| 12> H 	 5.47871 	 -11.5844 	 74.4949 	 
| 13> C 	 3.37193 	 -11.3273 	 76.5119 	 
| 14> H 	 2.7942 	 -12.2366 	 76.1411 	 
| 15> H 	 3.38758 	 -10.4872 	 75.8157 	 
| 16> C 	 2.70108 	 -10.8308 	 77.8328 	 
| 17> H 	 2.39248 	 -11.6559 	 78.4939 	 
| 18> H 	 3.54594 	 -10.2476 	 78.2852 	 
| 19> C 	 1.40898 	 -10.1339 	 77.6221 	 
| 20> H 	 0.77934 	 -10.8281 	 77.1011 	 
| 21> H 	 0.783822 	 -9.90751 	 78.4846 	 
| 22> H 	 1.49973 	 -9.28517 	 77.025 	 
| 23> S 	 8.72336 	 -11.6709 	 73.95 	 
| 24> C 	 9.95821 	 -12.6619 	 73.2591 	 
| 25> C 	 9.78347 	 -13.9783 	 73.6848 	 
| 26> C 	 8.61209 	 -14.1287 	 74.558 	 
| 27> C 	 7.95114 	 -12.9262 	 74.8153 	 
| 28> H 	 10.4312 	 -14.7335 	 73.215 	 
| 29> C 	 8.15028 	 -15.5402 	 75.0438 	 
| 30> H 	 7.73687 	 -15.5122 	 76.0599 	 
| 31> H 	 8.97235 	 -16.2183 	 74.9944 	 
| 32> C 	 7.24972 	 -16.1836 	 74.058 	 
| 33> H 	 7.62087 	 -16.4193 	 73.0581 	 
| 34> H 	 6.44148 	 -15.5077 	 73.824 	 
| 35> C 	 6.65918 	 -17.4716 	 74.6946 	 
| 36> H 	 7.36348 	 -18.3059 	 74.5986 	 
| 37> H 	 5.91926 	 -17.7447 	 73.9719 	 
| 38> H 	 6.2959 	 -17.2879 	 75.7709 	 
| 39> H 	 4.98155 	 -12.3209 	 78.6987 	 
| 40> H 	 10.6522 	 -12.1962 	 72.5798 	 
| 41> *
| 42> 
| 43>                          ****END OF INPUT****
================================================================================

                       ****************************
                       * Single Point Calculation *
                       ****************************

---------------------------------
CARTESIAN COORDINATES (ANGSTROEM)
---------------------------------
  S      6.882410  -13.270300   77.299700
  C      5.353670  -12.433600   77.700000
  C      4.772510  -11.930800   76.592100
  C      5.619660  -12.011500   75.455600
  C      6.863210  -12.574500   75.729000
  H      5.478710  -11.584400   74.494900
  C      3.371930  -11.327300   76.511900
  H      2.794200  -12.236600   76.141100
  H      3.387580  -10.487200   75.815700
  C      2.701080  -10.830800   77.832800
  H      2.392480  -11.655900   78.493900
  H      3.545940  -10.247600   78.285200
  C      1.408980  -10.133900   77.622100
  H      0.779340  -10.828100   77.101100
  H      0.783822   -9.907510   78.484600
  H      1.499730   -9.285170   77.025000
  S      8.723360  -11.670900   73.950000
  C      9.958210  -12.661900   73.259100
  C      9.783470  -13.978300   73.684800
  C      8.612090  -14.128700   74.558000
  C      7.951140  -12.926200   74.815300
  H     10.431200  -14.733500   73.215000
  C      8.150280  -15.540200   75.043800
  H      7.736870  -15.512200   76.059900
  H      8.972350  -16.218300   74.994400
  C      7.249720  -16.183600   74.058000
  H      7.620870  -16.419300   73.058100
  H      6.441480  -15.507700   73.824000
  C      6.659180  -17.471600   74.694600
  H      7.363480  -18.305900   74.598600
  H      5.919260  -17.744700   73.971900
  H      6.295900  -17.287900   75.770900
  H      4.981550  -12.320900   78.698700
  H     10.652200  -12.196200   72.579800

----------------------------
CARTESIAN COORDINATES (A.U.)
----------------------------
  NO LB      ZA    FRAG     MASS         X           Y           Z
   0 S    16.0000    0    32.060   13.005870  -25.077233  146.075263
   1 C     6.0000    0    12.011   10.116970  -23.496099  146.831721
   2 C     6.0000    0    12.011    9.018737  -22.545945  144.738093
   3 C     6.0000    0    12.011   10.619618  -22.698445  142.590419
   4 C     6.0000    0    12.011   12.969587  -23.762361  143.107070
   5 H     1.0000    0     1.008   10.353261  -21.891343  140.774959
   6 C     6.0000    0    12.011    6.372024  -21.405495  144.586537
   7 H     1.0000    0     1.008    5.280273  -23.123823  143.885827
   8 H     1.0000    0     1.008    6.401598  -19.817936  143.270910
   9 C     6.0000    0    12.011    5.104301  -20.467246  147.082676
  10 H     1.0000    0     1.008    4.521132  -22.026459  148.331974
  11 H     1.0000    0     1.008    6.700855  -19.365158  147.937588
  12 C     6.0000    0    12.011    2.662586  -19.150296  146.684511
  13 H     1.0000    0     1.008    1.472739  -20.462144  145.699964
  14 H     1.0000    0     1.008    1.481209  -18.722481  148.314400
  15 H     1.0000    0     1.008    2.834079  -17.546428  145.556155
  16 S    16.0000    0    32.060   16.484761  -22.054805  139.745248
  17 C     6.0000    0    12.011   18.818290  -23.927523  138.439636
  18 C     6.0000    0    12.011   18.488079  -26.415159  139.244092
  19 C     6.0000    0    12.011   16.274492  -26.699374  140.894201
  20 C     6.0000    0    12.011   15.025477  -24.426978  141.380428
  21 H     1.0000    0     1.008   19.712111  -27.842280  138.356299
  22 C     6.0000    0    12.011   15.401797  -29.366722  141.812230
  23 H     1.0000    0     1.008   14.620565  -29.313810  143.732381
  24 H     1.0000    0     1.008   16.955284  -30.648145  141.718878
  25 C     6.0000    0    12.011   13.699985  -30.582572  139.949338
  26 H     1.0000    0     1.008   14.401357  -31.027980  138.059801
  27 H     1.0000    0     1.008   12.172633  -29.305306  139.507142
  28 C     6.0000    0    12.011   12.584026  -33.016539  141.152338
  29 H     1.0000    0     1.008   13.914961  -34.593138  140.970924
  30 H     1.0000    0     1.008   11.185780  -33.532623  139.786633
  31 H     1.0000    0     1.008   11.897527  -32.669396  143.186250
  32 H     1.0000    0     1.008    9.413765  -23.283127  148.718990
  33 H     1.0000    0     1.008   20.129741  -23.047478  137.155945

--------------------------------
INTERNAL COORDINATES (ANGSTROEM)
--------------------------------
 S      0   0   0     0.000000000000     0.00000000     0.00000000
 C      1   0   0     1.788114360884     0.00000000     0.00000000
 C      2   1   0     1.348331263303   111.04145663     0.00000000
 C      3   2   1     1.419791485571   112.29388884   350.66663084
 C      4   3   2     1.392168510813   113.50080160   359.36260887
 H      4   3   2     1.060766610758   128.52011732   188.83013519
 C      3   2   1     1.527176684736   125.85987668   170.90356385
 H      7   3   2     1.139338002043    99.59866430   263.48391409
 H      7   3   2     1.091195386950   108.94088641   143.34957692
 C      7   3   2     1.562475210203   118.35518077    20.20955226
 H     10   7   3     1.101397830032   112.93481316   288.38916247
 H     10   7   3     1.121862923712   100.53065423    46.71489870
 C     10   7   3     1.483100303418   113.78281383   173.82541034
 H     13  10   7     1.072287820317   106.04481655    57.24435237
 H     13  10   7     1.089027642929   119.03143958   169.36675096
 H     13  10   7     1.041684494173   112.85429103   299.85001980
 S      5   4   3     2.727909819349   110.30841463   206.20308149
 C     17   5   4     1.727506391450   123.93349470   219.75404249
 C     18  17   5     1.394511928095   109.26069439     3.98239324
 C     19  18  17     1.468751001498   112.21525025     0.92273207
 C     20  19  18     1.396088980868   113.51231564   357.90547863
 H     19  18  17     1.100269618275   116.34772977   172.60791151
 C     20  19  18     1.562562755892   120.86683659   174.28126025
 H     23  20  19     1.097338160323   112.09710238   145.48989903
 H     23  20  19     1.066798507170   109.39296466    22.62142319
 C     23  20  19     1.482151650001   111.40283980   273.84629382
 H     26  23  20     1.092294292991   119.74023099    62.67174989
 H     26  23  20     1.079281570120   109.10889674   307.14790932
 C     26  23  20     1.553364429746   108.56347173   188.63092331
 H     29  26  23     1.096043329435   110.54672252   277.34489493
 H     29  26  23     1.069747870482   101.40652469   170.86596648
 H     29  26  23     1.150712708890   111.77539375    45.44050796
 H      2   1   3     1.071716508411   123.68826283   182.26430397
 H     18  17   5     1.077008402985   117.69779186   181.09262701

---------------------------
INTERNAL COORDINATES (A.U.)
---------------------------
 S      0   0   0     0.000000000000     0.00000000     0.00000000
 C      1   0   0     3.379046438203     0.00000000     0.00000000
 C      2   1   0     2.547976825447   111.04145663     0.00000000
 C      3   2   1     2.683017075002   112.29388884   350.66663084
 C      4   3   2     2.630817217706   113.50080160   359.36260887
 H      4   3   2     2.004558386341   128.52011732   188.83013519
 C      3   2   1     2.885945692260   125.85987668   170.90356385
 H      7   3   2     2.153036797831    99.59866430   263.48391409
 H      7   3   2     2.062060439933   108.94088641   143.34957692
 C      7   3   2     2.952650238325   118.35518077    20.20955226
 H     10   7   3     2.081340263256   112.93481316   288.38916247
 H     10   7   3     2.120013685616   100.53065423    46.71489870
 C     10   7   3     2.802653402596   113.78281383   173.82541034
 H     13  10   7     2.026330317138   106.04481655    57.24435237
 H     13  10   7     2.057963997406   119.03143958   169.36675096
 H     13  10   7     1.968498411939   112.85429103   299.85001980
 S      5   4   3     5.155002476604   110.30841463   206.20308149
 C     17   5   4     3.264513974439   123.93349470   219.75404249
 C     18  17   5     2.635245634587   109.26069439     3.98239324
 C     19  18  17     2.775537151753   112.21525025     0.92273207
 C     20  19  18     2.638225832425   113.51231564   357.90547863
 H     19  18  17     2.079208252015   116.34772977   172.60791151
 C     20  19  18     2.952815675701   120.86683659   174.28126025
 H     23  20  19     2.073668599311   112.09710238   145.48989903
 H     23  20  19     2.015957018627   109.39296466    22.62142319
 C     23  20  19     2.800860707441   111.40283980   273.84629382
 H     26  23  20     2.064137071398   119.74023099    62.67174989
 H     26  23  20     2.039546588915   109.10889674   307.14790932
 C     26  23  20     2.935433358395   108.56347173   188.63092331
 H     29  26  23     2.071221723544   110.54672252   277.34489493
 H     29  26  23     2.021530507556   101.40652469   170.86596648
 H     29  26  23     2.174531878624   111.77539375    45.44050796
 H      2   1   3     2.025250694099   123.68826283   182.26430397
 H     18  17   5     2.035250925573   117.69779186   181.09262701

---------------------
BASIS SET INFORMATION
---------------------
There are 3 groups of distinct atoms

 Group   1 Type S   : 10s7p1d contracted to 4s3p1d pattern {5311/511/1}
 Group   2 Type C   : 7s4p1d contracted to 3s2p1d pattern {511/31/1}
 Group   3 Type H   : 4s1p contracted to 2s1p pattern {31/1}

Atom   0S    basis set group =>   1
Atom   1C    basis set group =>   2
Atom   2C    basis set group =>   2
Atom   3C    basis set group =>   2
Atom   4C    basis set group =>   2
Atom   5H    basis set group =>   3
Atom   6C    basis set group =>   2
Atom   7H    basis set group =>   3
Atom   8H    basis set group =>   3
Atom   9C    basis set group =>   2
Atom  10H    basis set group =>   3
Atom  11H    basis set group =>   3
Atom  12C    basis set group =>   2
Atom  13H    basis set group =>   3
Atom  14H    basis set group =>   3
Atom  15H    basis set group =>   3
Atom  16S    basis set group =>   1
Atom  17C    basis set group =>   2
Atom  18C    basis set group =>   2
Atom  19C    basis set group =>   2
Atom  20C    basis set group =>   2
Atom  21H    basis set group =>   3
Atom  22C    basis set group =>   2
Atom  23H    basis set group =>   3
Atom  24H    basis set group =>   3
Atom  25C    basis set group =>   2
Atom  26H    basis set group =>   3
Atom  27H    basis set group =>   3
Atom  28C    basis set group =>   2
Atom  29H    basis set group =>   3
Atom  30H    basis set group =>   3
Atom  31H    basis set group =>   3
Atom  32H    basis set group =>   3
Atom  33H    basis set group =>   3


           ************************************************************
           *        Program running with 16 parallel MPI-processes    *
           *              working on a common directory               *
           ************************************************************
------------------------------------------------------------------------------
                           ORCA GTO INTEGRAL CALCULATION
------------------------------------------------------------------------------

                         BASIS SET STATISTICS AND STARTUP INFO

 # of primitive gaussian shells          ...  294
 # of primitive gaussian functions       ...  534
 # of contracted shells                  ...  154
 # of contracted basis functions         ...  322
 Highest angular momentum                ...    2
 Maximum contraction depth               ...    5
 Integral package used                   ... LIBINT
 Integral threshhold            Thresh   ...  1.000e-10
 Primitive cut-off              TCut     ...  1.000e-11


------------------------------ INTEGRAL EVALUATION ----------------------------


 * One electron integrals 
 Pre-screening matrix                    ... done
 Shell pair data                         ... done (   0.003 sec)



           ************************************************************
           *        Program running with 16 parallel MPI-processes    *
           *              working on a common directory               *
           ************************************************************
-------------------------------------------------------------------------------
                                 ORCA SCF
-------------------------------------------------------------------------------

------------
SCF SETTINGS
------------
Hamiltonian:
 Density Functional     Method          .... DFT(GTOs)
 Exchange Functional    Exchange        .... WB97X-D3
 Correlation Functional Correlation     .... WB97X-D3
 Gradients option       PostSCFGGA      .... off
 Hybrid DFT is turned on
   Fraction HF Exchange ScalHFX         ....  0.195728
   Scaling of DF-GGA-X  ScalDFX         ....  0.000000
   Scaling of DF-GGA-C  ScalDFC         ....  1.000000
   Scaling of DF-LDA-C  ScalLDAC        ....  1.000000
   Perturbative correction              ....  0.000000
   Density functional embedding theory  .... OFF
 Long-range corrected/Screened/Range-Separated Hybrid DFT is turned on
   Amount of maximum screened exact exchange              ....  0.804272
   Range separation parameter mu (erf(mu*r12)/r12)        ....  0.250000


General Settings:
 Integral files         IntName         .... config_3853
 Hartree-Fock type      HFTyp           .... RHF
 Total Charge           Charge          ....    0
 Multiplicity           Mult            ....    1
 Number of Electrons    NEL             ....  134
 Basis Dimension        Dim             ....  322
 Nuclear Repulsion      ENuc            ....   1272.9088190932 Eh

Convergence Acceleration:
 DIIS                   CNVDIIS         .... on
   Start iteration      DIISMaxIt       ....    12
   Startup error        DIISStart       ....  0.200000
   # of expansion vecs  DIISMaxEq       ....     5
   Bias factor          DIISBfac        ....   1.050
   Max. coefficient     DIISMaxC        ....  10.000
 Newton-Raphson         CNVNR           .... off
 SOSCF                  CNVSOSCF        .... on
   Start iteration      SOSCFMaxIt      ....   150
   Startup grad/error   SOSCFStart      ....  0.003300
 Level Shifting         CNVShift        .... on
   Level shift para.    LevelShift      ....    0.2500
   Turn off err/grad.   ShiftErr        ....    0.0010
 Zerner damping         CNVZerner       .... off
 Static damping         CNVDamp         .... on
   Fraction old density DampFac         ....    0.7000
   Max. Damping (<1)    DampMax         ....    0.9800
   Min. Damping (>=0)   DampMin         ....    0.0000
   Turn off err/grad.   DampErr         ....    0.1000
 Fernandez-Rico         CNVRico         .... off

SCF Procedure:
 Maximum # iterations   MaxIter         ....   125
 SCF integral mode      SCFMode         .... Direct
   Integral package                     .... LIBINT
 Reset frequency        DirectResetFreq ....    20
 Integral Threshold     Thresh          ....  1.000e-10 Eh
 Primitive CutOff       TCut            ....  1.000e-11 Eh

Convergence Tolerance:
 Convergence Check Mode ConvCheckMode   .... Total+1el-Energy
 Convergence forced     ConvForced      .... 0
 Energy Change          TolE            ....  1.000e-06 Eh
 1-El. energy change                    ....  1.000e-03 Eh
 Orbital Gradient       TolG            ....  5.000e-05
 Orbital Rotation angle TolX            ....  5.000e-05
 DIIS Error             TolErr          ....  1.000e-06


Diagonalization of the overlap matrix:
Smallest eigenvalue                        ... 5.542e-04
Time for diagonalization                   ...    0.016 sec
Threshold for overlap eigenvalues          ... 1.000e-08
Number of eigenvalues below threshold      ... 0
Time for construction of square roots      ...    0.031 sec
Total time needed                          ...    0.048 sec

-------------------
DFT GRID GENERATION
-------------------

General Integration Accuracy     IntAcc      ...  4.340
Radial Grid Type                 RadialGrid  ... Gauss-Chebyshev
Angular Grid (max. acc.)         AngularGrid ... Lebedev-110
Angular grid pruning method      GridPruning ... 3 (G Style)
Weight generation scheme         WeightScheme... Becke
Basis function cutoff            BFCut       ...    1.0000e-10
Integration weight cutoff        WCut        ...    1.0000e-14
Grids for H and He will be reduced by one unit

# of grid points (after initial pruning)     ...  41088 (   0.0 sec)
# of grid points (after weights+screening)   ...  37093 (   0.0 sec)
nearest neighbour list constructed           ...    0.0 sec
Grid point re-assignment to atoms done       ...    0.0 sec
Grid point division into batches done        ...    0.0 sec
Reduced shell lists constructed in    0.1 sec

Total number of grid points                  ...    37093
Total number of batches                      ...      596
Average number of points per batch           ...       62
Average number of grid points per atom       ...     1091
Average number of shells per batch           ...    82.49 (53.56%)
Average number of basis functions per batch  ...   163.46 (50.76%)
Average number of large shells per batch     ...    54.85 (66.49%)
Average number of large basis fcns per batch ...   110.38 (67.53%)
Maximum spatial batch extension              ...  15.03, 19.20, 13.17 au
Average spatial batch extension              ...   0.19,  0.21,  0.18 au

Time for grid setup =    0.179 sec

------------------------------
INITIAL GUESS: MODEL POTENTIAL
------------------------------
Loading Hartree-Fock densities                     ... done
Calculating cut-offs                               ... done
Setting up the integral package                    ... done
Initializing the effective Hamiltonian             ... done
Starting the Coulomb interaction                   ... done (   0.0 sec)
Reading the grid                                   ... done
Mapping shells                                     ... done
Starting the XC term evaluation                    ... done (   0.0 sec)
  promolecular density results
     # of electrons  =    133.992783270
     EX              =   -126.739275822
     EC              =     -4.622905934
     EX+EC           =   -131.362181756
Transforming the Hamiltonian                       ... done (   0.0 sec)
Diagonalizing the Hamiltonian                      ... done (   0.0 sec)
Back transforming the eigenvectors                 ... done (   0.0 sec)
Now organizing SCF variables                       ... done
                      ------------------
                      INITIAL GUESS DONE (   0.4 sec)
                      ------------------
--------------
SCF ITERATIONS
--------------
ITER       Energy         Delta-E        Max-DP      RMS-DP      [F,P]     Damp
               ***  Starting incremental Fock matrix formation  ***
  0  -1339.4290645412   0.000000000000 0.06866580  0.00151605  0.1716154 0.7000
  1  -1339.6055061579  -0.176441616638 0.04601539  0.00112497  0.1037719 0.7000
                               ***Turning on DIIS***
  2  -1339.6939096251  -0.088403467254 0.08004226  0.00218668  0.0538694 0.0000
  3  -1339.8289409672  -0.135031342095 0.04317927  0.00086330  0.0386581 0.0000
  4  -1339.8555023459  -0.026561378669 0.00722758  0.00020193  0.0075711 0.0000
                      *** Initiating the SOSCF procedure ***
                           *** Shutting down DIIS ***
                      *** Re-Reading the Fockian *** 
                      *** Removing any level shift *** 
ITER      Energy       Delta-E        Grad      Rot      Max-DP    RMS-DP
  5  -1339.85641074  -0.0009083920  0.001396  0.001396  0.003665  0.000096
               *** Restarting incremental Fock matrix formation ***
  6  -1339.85658514  -0.0001744009  0.001213  0.003332  0.002250  0.000066
  7  -1339.85664479  -0.0000596556  0.000682  0.003829  0.002576  0.000069
  8  -1339.85666309  -0.0000182946  0.000540  0.001022  0.000682  0.000022
  9  -1339.85666823  -0.0000051452  0.000116  0.000297  0.000314  0.000008
 10  -1339.85666876  -0.0000005266  0.000034  0.000160  0.000102  0.000003
                 **** Energy Check signals convergence ****
              ***Rediagonalizing the Fockian in SOSCF/NRSCF***

               *****************************************************
               *                     SUCCESS                       *
               *           SCF CONVERGED AFTER  11 CYCLES          *
               *****************************************************

Setting up the final grid:

General Integration Accuracy     IntAcc      ...  4.670
Radial Grid Type                 RadialGrid  ... Gauss-Chebyshev
Angular Grid (max. acc.)         AngularGrid ... Lebedev-302
Angular grid pruning method      GridPruning ... 3 (G Style)
Weight generation scheme         WeightScheme... Becke
Basis function cutoff            BFCut       ...    1.0000e-10
Integration weight cutoff        WCut        ...    1.0000e-14
Grids for H and He will be reduced by one unit

# of grid points (after initial pruning)     ... 161752 (   0.0 sec)
# of grid points (after weights+screening)   ... 143435 (   0.1 sec)
nearest neighbour list constructed           ...    0.0 sec
Grid point re-assignment to atoms done       ...    0.0 sec
Grid point division into batches done        ...    0.5 sec
Reduced shell lists constructed in    0.6 sec

Total number of grid points                  ...   143435
Total number of batches                      ...     2257
Average number of points per batch           ...       63
Average number of grid points per atom       ...     4219
Average number of shells per batch           ...    77.24 (50.15%)
Average number of basis functions per batch  ...   152.01 (47.21%)
Average number of large shells per batch     ...    49.57 (64.17%)
Average number of large basis fcns per batch ...    99.44 (65.42%)
Maximum spatial batch extension              ...  11.60, 12.60, 14.01 au
Average spatial batch extension              ...   0.12,  0.12,  0.12 au

Final grid set up in    1.3 sec
Final integration                            ... done (   0.4 sec)
Change in XC energy                          ...     0.007051365
Integrated number of electrons               ...   134.000035761
Previous integrated no of electrons          ...   133.998171674

----------------
TOTAL SCF ENERGY
----------------

Total Energy       :        -1339.84961755 Eh          -36459.16164 eV

Components:
Nuclear Repulsion  :         1272.90881909 Eh           34637.60991 eV
Electronic Energy  :        -2612.75843664 Eh          -71096.77155 eV
One Electron Energy:        -4362.43812847 Eh         -118707.97647 eV
Two Electron Energy:         1749.67969183 Eh           47611.20492 eV

Virial components:
Potential Energy   :        -2671.48421342 Eh          -72694.78118 eV
Kinetic Energy     :         1331.63459587 Eh           36235.61954 eV
Virial Ratio       :            2.00616913


DFT components:
N(Alpha)           :       67.000017880697 electrons
N(Beta)            :       67.000017880697 electrons
N(Total)           :      134.000035761394 electrons
E(XC)              :      -94.277329036314 Eh       
DFET-embed. en.    :        0.000000000000 Eh       

---------------
SCF CONVERGENCE
---------------

  Last Energy change         ...   -1.5256e-07  Tolerance :   1.0000e-06
  Last MAX-Density change    ...    2.5518e-05  Tolerance :   1.0000e-05
  Last RMS-Density change    ...    6.9520e-07  Tolerance :   1.0000e-06
  Last Orbital Gradient      ...    8.8049e-06  Tolerance :   5.0000e-05
  Last Orbital Rotation      ...    3.4149e-05  Tolerance :   5.0000e-05

             **** THE GBW FILE WAS UPDATED (config_3853.gbw) ****
             **** DENSITY FILE WAS UPDATED (config_3853.scfp) ****
             **** ENERGY FILE WAS UPDATED (config_3853.en.tmp) ****
             **** THE GBW FILE WAS UPDATED (config_3853.gbw) ****
             **** DENSITY FILE WAS UPDATED (config_3853.scfp) ****
----------------
ORBITAL ENERGIES
----------------

  NO   OCC          E(Eh)            E(eV) 
   0   2.0000     -88.964227     -2420.8397 
   1   2.0000     -88.960083     -2420.7269 
   2   2.0000     -10.330078      -281.0957 
   3   2.0000     -10.324730      -280.9502 
   4   2.0000     -10.317057      -280.7414 
   5   2.0000     -10.310569      -280.5648 
   6   2.0000     -10.308402      -280.5059 
   7   2.0000     -10.302580      -280.3475 
   8   2.0000     -10.301484      -280.3176 
   9   2.0000     -10.301231      -280.3108 
  10   2.0000     -10.293111      -280.0898 
  11   2.0000     -10.292907      -280.0842 
  12   2.0000     -10.284483      -279.8550 
  13   2.0000     -10.278461      -279.6911 
  14   2.0000     -10.275830      -279.6196 
  15   2.0000     -10.272163      -279.5198 
  16   2.0000      -8.078968      -219.8399 
  17   2.0000      -8.076209      -219.7648 
  18   2.0000      -6.037492      -164.2885 
  19   2.0000      -6.034578      -164.2092 
  20   2.0000      -6.033582      -164.1821 
  21   2.0000      -6.030292      -164.0926 
  22   2.0000      -6.029599      -164.0737 
  23   2.0000      -6.027268      -164.0103 
  24   2.0000      -1.010136       -27.4872 
  25   2.0000      -0.986894       -26.8548 
  26   2.0000      -0.916349       -24.9351 
  27   2.0000      -0.911896       -24.8139 
  28   2.0000      -0.875238       -23.8164 
  29   2.0000      -0.851335       -23.1660 
  30   2.0000      -0.840341       -22.8668 
  31   2.0000      -0.815327       -22.1862 
  32   2.0000      -0.784061       -21.3354 
  33   2.0000      -0.771062       -20.9817 
  34   2.0000      -0.709740       -19.3130 
  35   2.0000      -0.696027       -18.9399 
  36   2.0000      -0.688276       -18.7289 
  37   2.0000      -0.664124       -18.0717 
  38   2.0000      -0.641023       -17.4431 
  39   2.0000      -0.611895       -16.6505 
  40   2.0000      -0.594771       -16.1845 
  41   2.0000      -0.583773       -15.8853 
  42   2.0000      -0.570980       -15.5372 
  43   2.0000      -0.566510       -15.4155 
  44   2.0000      -0.528568       -14.3831 
  45   2.0000      -0.526134       -14.3168 
  46   2.0000      -0.518945       -14.1212 
  47   2.0000      -0.511584       -13.9209 
  48   2.0000      -0.508584       -13.8393 
  49   2.0000      -0.504368       -13.7246 
  50   2.0000      -0.491722       -13.3804 
  51   2.0000      -0.479715       -13.0537 
  52   2.0000      -0.473258       -12.8780 
  53   2.0000      -0.468554       -12.7500 
  54   2.0000      -0.459430       -12.5017 
  55   2.0000      -0.452037       -12.3005 
  56   2.0000      -0.448036       -12.1917 
  57   2.0000      -0.434396       -11.8205 
  58   2.0000      -0.430568       -11.7164 
  59   2.0000      -0.427876       -11.6431 
  60   2.0000      -0.410563       -11.1720 
  61   2.0000      -0.406311       -11.0563 
  62   2.0000      -0.401400       -10.9227 
  63   2.0000      -0.348894        -9.4939 
  64   2.0000      -0.330773        -9.0008 
  65   2.0000      -0.324907        -8.8412 
  66   2.0000      -0.294127        -8.0036 
  67   0.0000       0.033209         0.9037 
  68   0.0000       0.072792         1.9808 
  69   0.0000       0.105096         2.8598 
  70   0.0000       0.131240         3.5712 
  71   0.0000       0.132582         3.6078 
  72   0.0000       0.140691         3.8284 
  73   0.0000       0.150629         4.0988 
  74   0.0000       0.157347         4.2816 
  75   0.0000       0.168243         4.5781 
  76   0.0000       0.174201         4.7402 
  77   0.0000       0.182232         4.9588 
  78   0.0000       0.189541         5.1577 
  79   0.0000       0.193349         5.2613 
  80   0.0000       0.195519         5.3203 
  81   0.0000       0.204797         5.5728 
  82   0.0000       0.212246         5.7755 
  83   0.0000       0.212602         5.7852 
  84   0.0000       0.224128         6.0988 
  85   0.0000       0.225968         6.1489 
  86   0.0000       0.240504         6.5444 
  87   0.0000       0.244594         6.6557 
  88   0.0000       0.246456         6.7064 
  89   0.0000       0.248932         6.7738 
  90   0.0000       0.254146         6.9157 
  91   0.0000       0.263003         7.1567 
  92   0.0000       0.267968         7.2918 
  93   0.0000       0.289823         7.8865 
  94   0.0000       0.300125         8.1668 
  95   0.0000       0.306963         8.3529 
  96   0.0000       0.329955         8.9785 
  97   0.0000       0.339459         9.2372 
  98   0.0000       0.342727         9.3261 
  99   0.0000       0.357247         9.7212 
 100   0.0000       0.378823        10.3083 
 101   0.0000       0.392324        10.6757 
 102   0.0000       0.405470        11.0334 
 103   0.0000       0.417024        11.3478 
 104   0.0000       0.437550        11.9064 
 105   0.0000       0.440688        11.9917 
 106   0.0000       0.459423        12.5015 
 107   0.0000       0.476999        12.9798 
 108   0.0000       0.496507        13.5106 
 109   0.0000       0.504103        13.7174 
 110   0.0000       0.508617        13.8402 
 111   0.0000       0.515224        14.0200 
 112   0.0000       0.523984        14.2583 
 113   0.0000       0.527443        14.3524 
 114   0.0000       0.531536        14.4638 
 115   0.0000       0.545369        14.8403 
 116   0.0000       0.546321        14.8662 
 117   0.0000       0.548823        14.9342 
 118   0.0000       0.555663        15.1204 
 119   0.0000       0.564006        15.3474 
 120   0.0000       0.572530        15.5793 
 121   0.0000       0.591885        16.1060 
 122   0.0000       0.597118        16.2484 
 123   0.0000       0.603191        16.4137 
 124   0.0000       0.608611        16.5612 
 125   0.0000       0.627191        17.0667 
 126   0.0000       0.631353        17.1800 
 127   0.0000       0.642740        17.4898 
 128   0.0000       0.650882        17.7114 
 129   0.0000       0.668694        18.1961 
 130   0.0000       0.671452        18.2711 
 131   0.0000       0.679548        18.4914 
 132   0.0000       0.691159        18.8074 
 133   0.0000       0.700920        19.0730 
 134   0.0000       0.703671        19.1479 
 135   0.0000       0.715191        19.4613 
 136   0.0000       0.721191        19.6246 
 137   0.0000       0.723427        19.6855 
 138   0.0000       0.732185        19.9238 
 139   0.0000       0.737810        20.0768 
 140   0.0000       0.743562        20.2333 
 141   0.0000       0.747881        20.3509 
 142   0.0000       0.753073        20.4922 
 143   0.0000       0.760152        20.6848 
 144   0.0000       0.764038        20.7905 
 145   0.0000       0.768469        20.9111 
 146   0.0000       0.769941        20.9511 
 147   0.0000       0.777469        21.1560 
 148   0.0000       0.782914        21.3042 
 149   0.0000       0.785262        21.3681 
 150   0.0000       0.790943        21.5227 
 151   0.0000       0.794612        21.6225 
 152   0.0000       0.795097        21.6357 
 153   0.0000       0.797084        21.6898 
 154   0.0000       0.803591        21.8668 
 155   0.0000       0.806034        21.9333 
 156   0.0000       0.811277        22.0760 
 157   0.0000       0.814761        22.1708 
 158   0.0000       0.820162        22.3177 
 159   0.0000       0.824081        22.4244 
 160   0.0000       0.834205        22.6999 
 161   0.0000       0.837848        22.7990 
 162   0.0000       0.841580        22.9005 
 163   0.0000       0.846347        23.0303 
 164   0.0000       0.856724        23.3126 
 165   0.0000       0.860930        23.4271 
 166   0.0000       0.872141        23.7322 
 167   0.0000       0.876325        23.8460 
 168   0.0000       0.889542        24.2057 
 169   0.0000       0.893045        24.3010 
 170   0.0000       0.908802        24.7298 
 171   0.0000       0.920522        25.0487 
 172   0.0000       0.935707        25.4619 
 173   0.0000       0.954432        25.9714 
 174   0.0000       0.962405        26.1884 
 175   0.0000       0.984490        26.7893 
 176   0.0000       0.996653        27.1203 
 177   0.0000       1.003604        27.3095 
 178   0.0000       1.008494        27.4425 
 179   0.0000       1.049970        28.5711 
 180   0.0000       1.057021        28.7630 
 181   0.0000       1.078958        29.3599 
 182   0.0000       1.097329        29.8599 
 183   0.0000       1.105161        30.0730 
 184   0.0000       1.123015        30.5588 
 185   0.0000       1.127886        30.6913 
 186   0.0000       1.133768        30.8514 
 187   0.0000       1.159471        31.5508 
 188   0.0000       1.188193        32.3324 
 189   0.0000       1.192263        32.4431 
 190   0.0000       1.209462        32.9111 
 191   0.0000       1.239193        33.7201 
 192   0.0000       1.250062        34.0159 
 193   0.0000       1.273981        34.6668 
 194   0.0000       1.281312        34.8663 
 195   0.0000       1.303619        35.4733 
 196   0.0000       1.321026        35.9469 
 197   0.0000       1.337938        36.4071 
 198   0.0000       1.347712        36.6731 
 199   0.0000       1.372826        37.3565 
 200   0.0000       1.397961        38.0405 
 201   0.0000       1.422126        38.6980 
 202   0.0000       1.430075        38.9143 
 203   0.0000       1.449150        39.4334 
 204   0.0000       1.455791        39.6141 
 205   0.0000       1.468834        39.9690 
 206   0.0000       1.487010        40.4636 
 207   0.0000       1.503432        40.9105 
 208   0.0000       1.530557        41.6486 
 209   0.0000       1.559672        42.4408 
 210   0.0000       1.577325        42.9212 
 211   0.0000       1.604133        43.6507 
 212   0.0000       1.614696        43.9381 
 213   0.0000       1.625418        44.2299 
 214   0.0000       1.667254        45.3683 
 215   0.0000       1.668986        45.4154 
 216   0.0000       1.688695        45.9517 
 217   0.0000       1.714417        46.6517 
 218   0.0000       1.742296        47.4103 
 219   0.0000       1.776585        48.3433 
 220   0.0000       1.783991        48.5449 
 221   0.0000       1.785326        48.5812 
 222   0.0000       1.793068        48.7919 
 223   0.0000       1.796701        48.8907 
 224   0.0000       1.801736        49.0277 
 225   0.0000       1.818042        49.4714 
 226   0.0000       1.834065        49.9075 
 227   0.0000       1.846116        50.2354 
 228   0.0000       1.850475        50.3540 
 229   0.0000       1.856737        50.5244 
 230   0.0000       1.862429        50.6793 
 231   0.0000       1.879407        51.1413 
 232   0.0000       1.887614        51.3646 
 233   0.0000       1.893847        51.5342 
 234   0.0000       1.897128        51.6235 
 235   0.0000       1.905269        51.8450 
 236   0.0000       1.912641        52.0456 
 237   0.0000       1.917852        52.1874 
 238   0.0000       1.927878        52.4602 
 239   0.0000       1.945887        52.9503 
 240   0.0000       1.948886        53.0319 
 241   0.0000       1.954853        53.1943 
 242   0.0000       1.968520        53.5662 
 243   0.0000       1.976551        53.7847 
 244   0.0000       1.984564        54.0027 
 245   0.0000       2.007870        54.6369 
 246   0.0000       2.016689        54.8769 
 247   0.0000       2.022272        55.0288 
 248   0.0000       2.032225        55.2997 
 249   0.0000       2.042378        55.5759 
 250   0.0000       2.053577        55.8807 
 251   0.0000       2.065962        56.2177 
 252   0.0000       2.072466        56.3947 
 253   0.0000       2.086193        56.7682 
 254   0.0000       2.100975        57.1704 
 255   0.0000       2.109149        57.3929 
 256   0.0000       2.115459        57.5646 
 257   0.0000       2.128623        57.9228 
 258   0.0000       2.142099        58.2895 
 259   0.0000       2.147943        58.4485 
 260   0.0000       2.164649        58.9031 
 261   0.0000       2.173952        59.1562 
 262   0.0000       2.183165        59.4069 
 263   0.0000       2.196128        59.7597 
 264   0.0000       2.229700        60.6732 
 265   0.0000       2.240908        60.9782 
 266   0.0000       2.258163        61.4477 
 267   0.0000       2.270055        61.7713 
 268   0.0000       2.290957        62.3401 
 269   0.0000       2.299894        62.5833 
 270   0.0000       2.311677        62.9039 
 271   0.0000       2.332580        63.4727 
 272   0.0000       2.373907        64.5973 
 273   0.0000       2.384186        64.8770 
 274   0.0000       2.403759        65.4096 
 275   0.0000       2.422833        65.9286 
 276   0.0000       2.427017        66.0425 
 277   0.0000       2.459435        66.9246 
 278   0.0000       2.472225        67.2727 
 279   0.0000       2.479040        67.4581 
 280   0.0000       2.491274        67.7910 
 281   0.0000       2.503023        68.1107 
 282   0.0000       2.506980        68.2184 
 283   0.0000       2.533064        68.9282 
 284   0.0000       2.539694        69.1086 
 285   0.0000       2.557556        69.5946 
 286   0.0000       2.574287        70.0499 
 287   0.0000       2.585157        70.3457 
 288   0.0000       2.602776        70.8251 
 289   0.0000       2.611614        71.0656 
 290   0.0000       2.624820        71.4250 
 291   0.0000       2.645429        71.9858 
 292   0.0000       2.682663        72.9990 
 293   0.0000       2.711530        73.7845 
 294   0.0000       2.718523        73.9748 
 295   0.0000       2.738149        74.5088 
 296   0.0000       2.755834        74.9901 
 297   0.0000       2.768163        75.3256 
 298   0.0000       2.781923        75.7000 
 299   0.0000       2.824254        76.8519 
 300   0.0000       2.837173        77.2034 
 301   0.0000       2.866082        77.9901 
 302   0.0000       2.901771        78.9612 
 303   0.0000       2.927721        79.6673 
 304   0.0000       2.943353        80.0927 
 305   0.0000       2.957681        80.4826 
 306   0.0000       3.002065        81.6903 
 307   0.0000       3.006903        81.8220 
 308   0.0000       3.026539        82.3563 
 309   0.0000       3.056817        83.1802 
 310   0.0000       3.057914        83.2101 
 311   0.0000       3.111901        84.6791 
 312   0.0000       3.114105        84.7391 
 313   0.0000       3.125011        85.0359 
 314   0.0000       3.137722        85.3818 
 315   0.0000       3.164070        86.0987 
 316   0.0000       3.172656        86.3323 
 317   0.0000       3.189955        86.8031 
 318   0.0000       3.236437        88.0679 
 319   0.0000       3.267981        88.9263 
 320   0.0000       3.365817        91.5885 
 321   0.0000       3.437404        93.5365 

                    ********************************
                    * MULLIKEN POPULATION ANALYSIS *
                    ********************************

-----------------------
MULLIKEN ATOMIC CHARGES
-----------------------
   0 S :    0.098144
   1 C :   -0.134866
   2 C :   -0.058324
   3 C :    0.032355
   4 C :   -0.127043
   5 H :   -0.000493
   6 C :    0.035867
   7 H :    0.058537
   8 H :    0.036321
   9 C :   -0.110126
  10 H :    0.034608
  11 H :    0.041728
  12 C :    0.006444
  13 H :    0.011787
  14 H :    0.034188
  15 H :    0.015537
  16 S :    0.097264
  17 C :   -0.109500
  18 C :   -0.032552
  19 C :   -0.071758
  20 C :   -0.150215
  21 H :    0.034996
  22 C :    0.104693
  23 H :    0.030196
  24 H :    0.003884
  25 C :   -0.089481
  26 H :    0.023095
  27 H :    0.017696
  28 C :   -0.049772
  29 H :    0.028402
  30 H :    0.023835
  31 H :    0.057161
  32 H :    0.043465
  33 H :    0.063927
Sum of atomic charges:   -0.0000000

--------------------------------
MULLIKEN REDUCED ORBITAL CHARGES
--------------------------------
  0 S s       :     5.840059  s :     5.840059
      pz      :     3.130069  p :     9.955573
      px      :     3.315705
      py      :     3.509800
      dz2     :     0.029986  d :     0.106223
      dxz     :     0.015300
      dyz     :     0.025841
      dx2y2   :     0.015168
      dxy     :     0.019928
  1 C s       :     3.207011  s :     3.207011
      pz      :     0.951593  p :     2.893510
      px      :     0.910629
      py      :     1.031288
      dz2     :     0.009954  d :     0.034345
      dxz     :     0.008118
      dyz     :     0.005261
      dx2y2   :     0.005698
      dxy     :     0.005314
  2 C s       :     3.065099  s :     3.065099
      pz      :     0.965575  p :     2.947254
      px      :     0.979180
      py      :     1.002498
      dz2     :     0.009246  d :     0.045972
      dxz     :     0.013799
      dyz     :     0.008545
      dx2y2   :     0.007419
      dxy     :     0.006963
  3 C s       :     3.197015  s :     3.197015
      pz      :     0.841958  p :     2.736246
      px      :     0.909044
      py      :     0.985243
      dz2     :     0.008658  d :     0.034384
      dxz     :     0.008254
      dyz     :     0.005404
      dx2y2   :     0.006114
      dxy     :     0.005954
  4 C s       :     3.061420  s :     3.061420
      pz      :     0.968525  p :     3.019411
      px      :     1.008845
      py      :     1.042041
      dz2     :     0.011932  d :     0.046212
      dxz     :     0.010931
      dyz     :     0.008088
      dx2y2   :     0.009073
      dxy     :     0.006188
  5 H s       :     0.975300  s :     0.975300
      pz      :     0.013817  p :     0.025193
      px      :     0.004045
      py      :     0.007331
  6 C s       :     2.993300  s :     2.993300
      pz      :     1.011752  p :     2.937128
      px      :     0.949724
      py      :     0.975651
      dz2     :     0.005445  d :     0.033704
      dxz     :     0.005369
      dyz     :     0.008712
      dx2y2   :     0.006760
      dxy     :     0.007418
  7 H s       :     0.920101  s :     0.920101
      pz      :     0.004535  p :     0.021362
      px      :     0.006811
      py      :     0.010016
  8 H s       :     0.941063  s :     0.941063
      pz      :     0.008339  p :     0.022616
      px      :     0.003863
      py      :     0.010414
  9 C s       :     3.076041  s :     3.076041
      pz      :     1.000563  p :     2.997156
      px      :     0.967268
      py      :     1.029325
      dz2     :     0.005324  d :     0.036929
      dxz     :     0.008480
      dyz     :     0.008247
      dx2y2   :     0.006297
      dxy     :     0.008582
 10 H s       :     0.943071  s :     0.943071
      pz      :     0.007177  p :     0.022321
      px      :     0.005412
      py      :     0.009732
 11 H s       :     0.936791  s :     0.936791
      pz      :     0.005948  p :     0.021481
      px      :     0.009164
      py      :     0.006369
 12 C s       :     2.954809  s :     2.954809
      pz      :     1.025662  p :     3.007499
      px      :     0.964892
      py      :     1.016945
      dz2     :     0.002463  d :     0.031248
      dxz     :     0.007422
      dyz     :     0.007989
      dx2y2   :     0.006183
      dxy     :     0.007191
 13 H s       :     0.962302  s :     0.962302
      pz      :     0.008096  p :     0.025911
      px      :     0.008494
      py      :     0.009322
 14 H s       :     0.941663  s :     0.941663
      pz      :     0.011137  p :     0.024148
      px      :     0.007427
      py      :     0.005585
 15 H s       :     0.958112  s :     0.958112
      pz      :     0.008995  p :     0.026351
      px      :     0.004976
      py      :     0.012379
 16 S s       :     5.839202  s :     5.839202
      pz      :     3.385977  p :     9.946304
      px      :     3.205930
      py      :     3.354397
      dz2     :     0.022394  d :     0.117229
      dxz     :     0.015707
      dyz     :     0.025363
      dx2y2   :     0.020112
      dxy     :     0.033654
 17 C s       :     3.170779  s :     3.170779
      pz      :     1.021980  p :     2.904057
      px      :     0.938298
      py      :     0.943780
      dz2     :     0.003598  d :     0.034664
      dxz     :     0.004375
      dyz     :     0.009330
      dx2y2   :     0.006018
      dxy     :     0.011343
 18 C s       :     3.191616  s :     3.191616
      pz      :     0.973966  p :     2.807870
      px      :     0.959128
      py      :     0.874777
      dz2     :     0.005132  d :     0.033066
      dxz     :     0.004592
      dyz     :     0.007437
      dx2y2   :     0.007963
      dxy     :     0.007942
 19 C s       :     3.074495  s :     3.074495
      pz      :     0.982990  p :     2.957050
      px      :     0.966902
      py      :     1.007157
      dz2     :     0.005876  d :     0.040214
      dxz     :     0.005433
      dyz     :     0.008023
      dx2y2   :     0.010653
      dxy     :     0.010230
 20 C s       :     3.055592  s :     3.055592
      pz      :     1.054779  p :     3.050445
      px      :     1.033393
      py      :     0.962273
      dz2     :     0.005751  d :     0.044178
      dxz     :     0.005944
      dyz     :     0.012009
      dx2y2   :     0.008157
      dxy     :     0.012317
 21 H s       :     0.941785  s :     0.941785
      pz      :     0.006673  p :     0.023219
      px      :     0.007741
      py      :     0.008805
 22 C s       :     2.933956  s :     2.933956
      pz      :     1.000486  p :     2.925065
      px      :     0.998662
      py      :     0.925916
      dz2     :     0.009005  d :     0.036286
      dxz     :     0.006223
      dyz     :     0.005665
      dx2y2   :     0.005403
      dxy     :     0.009989
 23 H s       :     0.946563  s :     0.946563
      pz      :     0.013554  p :     0.023240
      px      :     0.005907
      py      :     0.003780
 24 H s       :     0.971075  s :     0.971075
      pz      :     0.005347  p :     0.025042
      px      :     0.011465
      py      :     0.008230
 25 C s       :     3.046192  s :     3.046192
      pz      :     0.991427  p :     3.004106
      px      :     1.028150
      py      :     0.984529
      dz2     :     0.008891  d :     0.039182
      dxz     :     0.007222
      dyz     :     0.007165
      dx2y2   :     0.005548
      dxy     :     0.010357
 26 H s       :     0.954103  s :     0.954103
      pz      :     0.012545  p :     0.022802
      px      :     0.005416
      py      :     0.004840
 27 H s       :     0.959037  s :     0.959037
      pz      :     0.005211  p :     0.023268
      px      :     0.010046
      py      :     0.008010
 28 C s       :     3.026854  s :     3.026854
      pz      :     0.982101  p :     2.995392
      px      :     1.034739
      py      :     0.978552
      dz2     :     0.005892  d :     0.027526
      dxz     :     0.006462
      dyz     :     0.004014
      dx2y2   :     0.003372
      dxy     :     0.007786
 29 H s       :     0.947701  s :     0.947701
      pz      :     0.004650  p :     0.023898
      px      :     0.009273
      py      :     0.009975
 30 H s       :     0.950960  s :     0.950960
      pz      :     0.008637  p :     0.025205
      px      :     0.010132
      py      :     0.006436
 31 H s       :     0.922290  s :     0.922290
      pz      :     0.012211  p :     0.020549
      px      :     0.004742
      py      :     0.003596
 32 H s       :     0.932115  s :     0.932115
      pz      :     0.014181  p :     0.024420
      px      :     0.004961
      py      :     0.005277
 33 H s       :     0.912052  s :     0.912052
      pz      :     0.009525  p :     0.024021
      px      :     0.009033
      py      :     0.005463


                     *******************************
                     * LOEWDIN POPULATION ANALYSIS *
                     *******************************

----------------------
LOEWDIN ATOMIC CHARGES
----------------------
   0 S :    0.411846
   1 C :   -0.184866
   2 C :   -0.065404
   3 C :   -0.060100
   4 C :   -0.192460
   5 H :    0.025747
   6 C :   -0.030521
   7 H :    0.047415
   8 H :    0.030212
   9 C :   -0.050351
  10 H :    0.028091
  11 H :    0.027030
  12 C :   -0.060693
  13 H :    0.026679
  14 H :    0.031171
  15 H :    0.014884
  16 S :    0.431338
  17 C :   -0.192715
  18 C :   -0.075736
  19 C :   -0.058203
  20 C :   -0.222793
  21 H :    0.037226
  22 C :   -0.033656
  23 H :    0.020116
  24 H :    0.027143
  25 C :   -0.042658
  26 H :    0.024410
  27 H :    0.017656
  28 C :   -0.067266
  29 H :    0.022998
  30 H :    0.023607
  31 H :    0.037533
  32 H :    0.024659
  33 H :    0.027662

-------------------------------
LOEWDIN REDUCED ORBITAL CHARGES
-------------------------------
  0 S s       :     5.505136  s :     5.505136
      pz      :     3.146878  p :     9.952072
      px      :     3.306279
      py      :     3.498915
      dz2     :     0.038716  d :     0.130946
      dxz     :     0.018989
      dyz     :     0.032534
      dx2y2   :     0.017225
      dxy     :     0.023482
  1 C s       :     2.920825  s :     2.920825
      pz      :     1.082788  p :     3.181537
      px      :     1.020981
      py      :     1.077768
      dz2     :     0.026142  d :     0.082505
      dxz     :     0.020430
      dyz     :     0.012031
      dx2y2   :     0.011916
      dxy     :     0.011985
  2 C s       :     2.854269  s :     2.854269
      pz      :     1.074842  p :     3.097099
      px      :     1.029189
      py      :     0.993068
      dz2     :     0.025650  d :     0.114036
      dxz     :     0.038182
      dyz     :     0.020420
      dx2y2   :     0.014764
      dxy     :     0.015019
  3 C s       :     2.860118  s :     2.860118
      pz      :     1.044279  p :     3.108437
      px      :     1.026426
      py      :     1.037731
      dz2     :     0.023727  d :     0.091545
      dxz     :     0.024651
      dyz     :     0.012657
      dx2y2   :     0.015288
      dxy     :     0.015222
  4 C s       :     2.909361  s :     2.909361
      pz      :     1.032651  p :     3.173700
      px      :     1.082585
      py      :     1.058465
      dz2     :     0.028447  d :     0.109399
      dxz     :     0.027249
      dyz     :     0.018649
      dx2y2   :     0.021007
      dxy     :     0.014048
  5 H s       :     0.899068  s :     0.899068
      pz      :     0.039693  p :     0.075185
      px      :     0.013234
      py      :     0.022259
  6 C s       :     2.845915  s :     2.845915
      pz      :     1.046668  p :     3.101111
      px      :     1.014582
      py      :     1.039862
      dz2     :     0.013754  d :     0.083494
      dxz     :     0.012812
      dyz     :     0.021555
      dx2y2   :     0.016483
      dxy     :     0.018890
  7 H s       :     0.890807  s :     0.890807
      pz      :     0.014223  p :     0.061778
      px      :     0.019187
      py      :     0.028367
  8 H s       :     0.901829  s :     0.901829
      pz      :     0.025839  p :     0.067959
      px      :     0.012627
      py      :     0.029493
  9 C s       :     2.837452  s :     2.837452
      pz      :     1.034735  p :     3.123149
      px      :     1.024994
      py      :     1.063421
      dz2     :     0.012921  d :     0.089750
      dxz     :     0.020842
      dyz     :     0.019847
      dx2y2   :     0.013951
      dxy     :     0.022190
 10 H s       :     0.905777  s :     0.905777
      pz      :     0.022280  p :     0.066132
      px      :     0.015477
      py      :     0.028375
 11 H s       :     0.909803  s :     0.909803
      pz      :     0.017389  p :     0.063168
      px      :     0.026828
      py      :     0.018950
 12 C s       :     2.804906  s :     2.804906
      pz      :     1.078460  p :     3.174831
      px      :     1.028684
      py      :     1.067688
      dz2     :     0.007224  d :     0.080956
      dxz     :     0.019124
      dyz     :     0.019730
      dx2y2   :     0.015429
      dxy     :     0.019449
 13 H s       :     0.903323  s :     0.903323
      pz      :     0.021577  p :     0.069997
      px      :     0.023601
      py      :     0.024819
 14 H s       :     0.902269  s :     0.902269
      pz      :     0.029899  p :     0.066561
      px      :     0.021929
      py      :     0.014733
 15 H s       :     0.909964  s :     0.909964
      pz      :     0.025641  p :     0.075152
      px      :     0.015820
      py      :     0.033690
 16 S s       :     5.475128  s :     5.475128
      pz      :     3.363504  p :     9.947357
      px      :     3.193895
      py      :     3.389957
      dz2     :     0.027062  d :     0.146177
      dxz     :     0.021212
      dyz     :     0.031504
      dx2y2   :     0.023328
      dxy     :     0.043070
 17 C s       :     2.935234  s :     2.935234
      pz      :     1.073332  p :     3.175887
      px      :     1.033420
      py      :     1.069135
      dz2     :     0.007435  d :     0.081595
      dxz     :     0.008847
      dyz     :     0.021939
      dx2y2   :     0.016373
      dxy     :     0.027001
 18 C s       :     2.884175  s :     2.884175
      pz      :     1.025451  p :     3.106879
      px      :     1.025450
      py      :     1.055979
      dz2     :     0.011487  d :     0.084682
      dxz     :     0.011068
      dyz     :     0.018461
      dx2y2   :     0.023611
      dxy     :     0.020055
 19 C s       :     2.877923  s :     2.877923
      pz      :     1.015909  p :     3.081279
      px      :     1.020906
      py      :     1.044464
      dz2     :     0.012863  d :     0.099002
      dxz     :     0.013442
      dyz     :     0.017833
      dx2y2   :     0.028520
      dxy     :     0.026345
 20 C s       :     2.902369  s :     2.902369
      pz      :     1.080100  p :     3.212899
      px      :     1.066308
      py      :     1.066491
      dz2     :     0.013481  d :     0.107526
      dxz     :     0.014113
      dyz     :     0.028043
      dx2y2   :     0.021111
      dxy     :     0.030778
 21 H s       :     0.894685  s :     0.894685
      pz      :     0.019535  p :     0.068089
      px      :     0.023334
      py      :     0.025220
 22 C s       :     2.821244  s :     2.821244
      pz      :     1.053184  p :     3.120897
      px      :     1.068222
      py      :     0.999491
      dz2     :     0.023086  d :     0.091515
      dxz     :     0.016453
      dyz     :     0.013464
      dx2y2   :     0.013295
      dxy     :     0.025217
 23 H s       :     0.911761  s :     0.911761
      pz      :     0.038472  p :     0.068123
      px      :     0.017448
      py      :     0.012202
 24 H s       :     0.898995  s :     0.898995
      pz      :     0.015886  p :     0.073862
      px      :     0.032594
      py      :     0.025381
 25 C s       :     2.825468  s :     2.825468
      pz      :     1.037863  p :     3.122750
      px      :     1.056216
      py      :     1.028670
      dz2     :     0.020699  d :     0.094441
      dxz     :     0.018793
      dyz     :     0.018085
      dx2y2   :     0.011271
      dxy     :     0.025592
 26 H s       :     0.908254  s :     0.908254
      pz      :     0.035613  p :     0.067336
      px      :     0.016840
      py      :     0.014883
 27 H s       :     0.912727  s :     0.912727
      pz      :     0.015406  p :     0.069618
      px      :     0.029832
      py      :     0.024380
 28 C s       :     2.848305  s :     2.848305
      pz      :     1.041904  p :     3.150393
      px      :     1.078183
      py      :     1.030305
      dz2     :     0.015583  d :     0.068568
      dxz     :     0.015816
      dyz     :     0.009507
      dx2y2   :     0.007986
      dxy     :     0.019677
 29 H s       :     0.910267  s :     0.910267
      pz      :     0.012157  p :     0.066735
      px      :     0.025376
      py      :     0.029203
 30 H s       :     0.903671  s :     0.903671
      pz      :     0.026136  p :     0.072722
      px      :     0.027855
      py      :     0.018732
 31 H s       :     0.905640  s :     0.905640
      pz      :     0.034139  p :     0.056827
      px      :     0.012608
      py      :     0.010080
 32 H s       :     0.897949  s :     0.897949
      pz      :     0.041017  p :     0.077391
      px      :     0.018973
      py      :     0.017401
 33 H s       :     0.896437  s :     0.896437
      pz      :     0.029570  p :     0.075901
      px      :     0.028720
      py      :     0.017611


                      *****************************
                      * MAYER POPULATION ANALYSIS *
                      *****************************

  NA   - Mulliken gross atomic population
  ZA   - Total nuclear charge
  QA   - Mulliken gross atomic charge
  VA   - Mayer's total valence
  BVA  - Mayer's bonded valence
  FA   - Mayer's free valence

  ATOM       NA         ZA         QA         VA         BVA        FA
  0 S     15.9019    16.0000     0.0981     2.4775     2.4775    -0.0000
  1 C      6.1349     6.0000    -0.1349     3.8459     3.8459    -0.0000
  2 C      6.0583     6.0000    -0.0583     3.9619     3.9619     0.0000
  3 C      5.9676     6.0000     0.0324     3.9271     3.9271    -0.0000
  4 C      6.1270     6.0000    -0.1270     3.8883     3.8883    -0.0000
  5 H      1.0005     1.0000    -0.0005     1.0071     1.0071    -0.0000
  6 C      5.9641     6.0000     0.0359     3.9311     3.9311     0.0000
  7 H      0.9415     1.0000     0.0585     0.9787     0.9787     0.0000
  8 H      0.9637     1.0000     0.0363     0.9897     0.9897     0.0000
  9 C      6.1101     6.0000    -0.1101     4.1080     4.1080     0.0000
 10 H      0.9654     1.0000     0.0346     0.9726     0.9726     0.0000
 11 H      0.9583     1.0000     0.0417     0.9774     0.9774     0.0000
 12 C      5.9936     6.0000     0.0064     3.9952     3.9952     0.0000
 13 H      0.9882     1.0000     0.0118     0.9913     0.9913     0.0000
 14 H      0.9658     1.0000     0.0342     0.9876     0.9876     0.0000
 15 H      0.9845     1.0000     0.0155     0.9969     0.9969     0.0000
 16 S     15.9027    16.0000     0.0973     2.5320     2.5320     0.0000
 17 C      6.1095     6.0000    -0.1095     3.8342     3.8342    -0.0000
 18 C      6.0326     6.0000    -0.0326     3.9165     3.9165    -0.0000
 19 C      6.0718     6.0000    -0.0718     4.0280     4.0280     0.0000
 20 C      6.1502     6.0000    -0.1502     3.8698     3.8698    -0.0000
 21 H      0.9650     1.0000     0.0350     0.9958     0.9958    -0.0000
 22 C      5.8953     6.0000     0.1047     3.9645     3.9645     0.0000
 23 H      0.9698     1.0000     0.0302     1.0081     1.0081    -0.0000
 24 H      0.9961     1.0000     0.0039     0.9885     0.9885     0.0000
 25 C      6.0895     6.0000    -0.0895     4.0695     4.0695     0.0000
 26 H      0.9769     1.0000     0.0231     0.9799     0.9799     0.0000
 27 H      0.9823     1.0000     0.0177     0.9796     0.9796     0.0000
 28 C      6.0498     6.0000    -0.0498     3.9983     3.9983    -0.0000
 29 H      0.9716     1.0000     0.0284     0.9870     0.9870    -0.0000
 30 H      0.9762     1.0000     0.0238     0.9869     0.9869     0.0000
 31 H      0.9428     1.0000     0.0572     0.9889     0.9889    -0.0000
 32 H      0.9565     1.0000     0.0435     1.0084     1.0084    -0.0000
 33 H      0.9361     1.0000     0.0639     0.9944     0.9944     0.0000

  Mayer bond orders larger than 0.100000
B(  0-S ,  1-C ) :   1.1159 B(  0-S ,  4-C ) :   1.1626 B(  1-C ,  2-C ) :   1.6337 
B(  1-C , 32-H ) :   0.9701 B(  2-C ,  3-C ) :   1.2244 B(  2-C ,  6-C ) :   1.0017 
B(  3-C ,  4-C ) :   1.5797 B(  3-C ,  5-H ) :   1.0007 B(  4-C , 20-C ) :   1.0102 
B(  6-C ,  7-H ) :   0.9255 B(  6-C ,  8-H ) :   0.9510 B(  6-C ,  9-C ) :   1.0720 
B(  9-C , 10-H ) :   0.9478 B(  9-C , 11-H ) :   0.9583 B(  9-C , 12-C ) :   1.0888 
B( 12-C , 13-H ) :   0.9647 B( 12-C , 14-H ) :   0.9713 B( 12-C , 15-H ) :   0.9736 
B( 16-S , 17-C ) :   1.1792 B( 16-S , 20-C ) :   1.1594 B( 17-C , 18-C ) :   1.5708 
B( 17-C , 33-H ) :   0.9736 B( 18-C , 19-C ) :   1.2517 B( 18-C , 21-H ) :   0.9904 
B( 19-C , 20-C ) :   1.5763 B( 19-C , 22-C ) :   1.0411 B( 22-C , 23-H ) :   0.9378 
B( 22-C , 24-H ) :   0.9254 B( 22-C , 25-C ) :   1.0660 B( 25-C , 26-H ) :   0.9512 
B( 25-C , 27-H ) :   0.9560 B( 25-C , 28-C ) :   1.0788 B( 28-C , 29-H ) :   0.9743 
B( 28-C , 30-H ) :   0.9725 B( 28-C , 31-H ) :   0.9730 

-------
TIMINGS
-------

Total SCF time: 0 days 0 hours 0 min 27 sec 

Total time                  ....      27.512 sec
Sum of individual times     ....      26.600 sec  ( 96.7%)

Fock matrix formation       ....      24.425 sec  ( 88.8%)
  XC integration            ....       1.732 sec  (  7.1% of F)
    Basis function eval.    ....       0.218 sec  ( 12.6% of XC)
    Density eval.           ....       0.149 sec  (  8.6% of XC)
    XC-Functional eval.     ....       0.180 sec  ( 10.4% of XC)
    XC-Potential eval.      ....       0.184 sec  ( 10.6% of XC)
Diagonalization             ....       0.134 sec  (  0.5%)
Density matrix formation    ....       0.018 sec  (  0.1%)
Population analysis         ....       0.050 sec  (  0.2%)
Initial guess               ....       0.183 sec  (  0.7%)
Orbital Transformation      ....       0.000 sec  (  0.0%)
Orbital Orthonormalization  ....       0.000 sec  (  0.0%)
DIIS solution               ....       0.135 sec  (  0.5%)
SOSCF solution              ....       0.131 sec  (  0.5%)
Grid generation             ....       1.526 sec  (  5.5%)


-------------------------------------------------------------------------------
                          DFT DISPERSION CORRECTION                            
                                                                               
                              DFTD3 V3.1  Rev 1                                
                              USING zero damping                               
-------------------------------------------------------------------------------
The omegaB97X-D3 functional is recognized. Fit by Chai et al.
Active option DFTDOPT                   ...         3   

molecular C6(AA) [au] = 14162.373505 


            DFT-D V3
 parameters
 s6 scaling factor         :     1.0000 
 rs6 scaling factor        :     1.2810 
 s8 scaling factor         :     1.0000 
 rs8 scaling factor        :     1.0940 
 Damping factor alpha6     :    14.0000 
 Damping factor alpha8     :    16.0000 
 ad hoc parameters k1-k3   :    16.0000     1.3333    -4.0000 

 Edisp/kcal,au: -8.617185073202  -0.013732357056 
 E6   /kcal   :  -3.798882930 
 E8   /kcal   :  -4.818302144 
 % E8         :  55.915036089 

-------------------------   ----------------
Dispersion correction           -0.013732357
-------------------------   ----------------


-------------------------   --------------------
FINAL SINGLE POINT ENERGY     -1339.863349905412
-------------------------   --------------------


                            ***************************************
                            *     ORCA property calculations      *
                            ***************************************

                                    ---------------------
                                    Active property flags
                                    ---------------------
   (+) Dipole Moment


------------------------------------------------------------------------------
                       ORCA ELECTRIC PROPERTIES CALCULATION
------------------------------------------------------------------------------

Dipole Moment Calculation                       ... on
Quadrupole Moment Calculation                   ... off
Polarizability Calculation                      ... off
GBWName                                         ... config_3853.gbw
Electron density file                           ... config_3853.scfp
The origin for moment calculation is the CENTER OF MASS  = (12.531433, -24.568100 142.812710)

-------------
DIPOLE MOMENT
-------------
                                X             Y             Z
Electronic contribution:     20.50190       7.83848      -2.35294
Nuclear contribution   :    -20.97727      -7.97074       2.14979
                        -----------------------------------------
Total Dipole Moment    :     -0.47537      -0.13225      -0.20315
                        -----------------------------------------
Magnitude (a.u.)       :      0.53361
Magnitude (Debye)      :      1.35633



--------------------
Rotational spectrum 
--------------------
 
Rotational constants in cm-1:     0.021490     0.007332     0.006163 
Rotational constants in MHz :   644.240744   219.793120   184.760978 

 Dipole components along the rotational axes: 
x,y,z [a.u.] :     0.217254    -0.245077    -0.421281 
x,y,z [Debye]:     0.552216    -0.622937    -1.070811 

 

Timings for individual modules:

Sum of individual times         ...       28.684 sec (=   0.478 min)
GTO integral calculation        ...        0.745 sec (=   0.012 min)   2.6 %
SCF iterations                  ...       27.940 sec (=   0.466 min)  97.4 %
                             ****ORCA TERMINATED NORMALLY****
TOTAL RUN TIME: 0 days 0 hours 0 minutes 29 seconds 444 msec
