
                                 *****************
                                 * O   R   C   A *
                                 *****************

           --- An Ab Initio, DFT and Semiempirical electronic structure package ---

                  #######################################################
                  #                        -***-                        #
                  #          Department of theory and spectroscopy      #
                  #               Directorship: Frank Neese             #
                  #        Max Planck Institute fuer Kohlenforschung    #
                  #                Kaiser Wilhelm Platz 1               #
                  #                 D-45470 Muelheim/Ruhr               #
                  #                      Germany                        #
                  #                                                     #
                  #                  All rights reserved                #
                  #                        -***-                        #
                  #######################################################


                         Program Version 4.2.1 -  RELEASE  -


 With contributions from (in alphabetic order):
   Daniel Aravena         : Magnetic Suceptibility
   Michael Atanasov       : Ab Initio Ligand Field Theory (pilot matlab implementation)
   Alexander A. Auer      : GIAO ZORA, VPT2
   Ute Becker             : Parallelization
   Giovanni Bistoni       : ED, misc. LED, open-shell LED, HFLD
   Martin Brehm           : Molecular dynamics
   Dmytro Bykov           : SCF Hessian
   Vijay G. Chilkuri      : MRCI spin determinant printing, contributions to CSF-ICE
   Dipayan Datta          : RHF DLPNO-CCSD density
   Achintya Kumar Dutta   : EOM-CC, STEOM-CC
   Dmitry Ganyushin       : Spin-Orbit,Spin-Spin,Magnetic field MRCI
   Miquel Garcia          : C-PCM Hessian, Gaussian charge scheme
   Yang Guo               : DLPNO-NEVPT2, CIM, IAO-localization
   Andreas Hansen         : Spin unrestricted coupled pair/coupled cluster methods
   Benjamin Helmich-Paris : CASSCF linear response (MC-RPA)
   Lee Huntington         : MR-EOM, pCC
   Robert Izsak           : Overlap fitted RIJCOSX, COSX-SCS-MP3, EOM
   Christian Kollmar      : KDIIS, OOCD, Brueckner-CCSD(T), CCSD density
   Simone Kossmann        : Meta GGA functionals, TD-DFT gradient, OOMP2, MP2 Hessian
   Martin Krupicka        : AUTO-CI
   Lucas Lang             : DCDCAS
   Dagmar Lenk            : GEPOL surface, SMD
   Dimitrios Liakos       : Extrapolation schemes; Compound Job, initial MDCI parallelization
   Dimitrios Manganas     : Further ROCIS development; embedding schemes
   Dimitrios Pantazis     : SARC Basis sets
   Taras Petrenko         : DFT Hessian,TD-DFT gradient, ASA, ECA, R-Raman, ABS, FL, XAS/XES, NRVS
   Peter Pinski           : DLPNO-MP2, DLPNO-MP2 Gradient
   Christoph Reimann      : Effective Core Potentials
   Marius Retegan         : Local ZFS, SOC
   Christoph Riplinger    : Optimizer, TS searches, QM/MM, DLPNO-CCSD(T), (RO)-DLPNO pert. Triples
   Tobias Risthaus        : Range-separated hybrids, TD-DFT gradient, RPA, STAB
   Michael Roemelt        : Original ROCIS implementation
   Masaaki Saitow         : Open-shell DLPNO-CCSD energy and density
   Barbara Sandhoefer     : DKH picture change effects
   Avijit Sen             : IP-ROCIS
   Kantharuban Sivalingam : CASSCF convergence, NEVPT2, FIC-MRCI
   Bernardo de Souza      : ESD, SOC TD-DFT
   Georgi Stoychev        : AutoAux, RI-MP2 NMR
   Willem Van den Heuvel  : Paramagnetic NMR
   Boris Wezisla          : Elementary symmetry handling
   Frank Wennmohs         : Technical directorship


 We gratefully acknowledge several colleagues who have allowed us to
 interface, adapt or use parts of their codes:
   Stefan Grimme, W. Hujo, H. Kruse,             : VdW corrections, initial TS optimization,
                  C. Bannwarth                     DFT functionals, gCP, sTDA/sTD-DF
   Ed Valeev, F. Pavosevic, A. Kumar             : LibInt (2-el integral package), F12 methods
   Garnet Chan, S. Sharma, J. Yang, R. Olivares  : DMRG
   Ulf Ekstrom                                   : XCFun DFT Library
   Mihaly Kallay                                 : mrcc  (arbitrary order and MRCC methods)
   Andreas Klamt, Michael Diedenhofen            : otool_cosmo (COSMO solvation model)
   Jiri Pittner, Ondrej Demel                    : Mk-CCSD
   Frank Weinhold                                : gennbo (NPA and NBO analysis)
   Christopher J. Cramer and Donald G. Truhlar   : smd solvation model
   Lars Goerigk                                  : TD-DFT with DH, B97 family of functionals
   V. Asgeirsson, H. Jonsson                     : NEB implementation
   FAccTs GmbH                                   : IRC, NEB, NEB-TS, Multilevel, MM, QM/MM, CI optimization
   S Lehtola, MJT Oliveira, MAL Marques          : LibXC Library


 Your calculation uses the libint2 library for the computation of 2-el integrals
 For citations please refer to: http://libint.valeyev.net

 Your ORCA version has been built with support for libXC version: 4.2.3
 For citations please refer to: https://tddft.org/programs/libxc/

 This ORCA versions uses:
   CBLAS   interface :  Fast vector & matrix operations
   LAPACKE interface :  Fast linear algebra routines
   SCALAPACK package :  Parallel linear algebra routines


Your calculation utilizes the atom-pairwise dispersion correction
with the zero-damping scheme (D30)
Cite in your paper:
S.Grimme, J.Antony, S.Ehrlich and H.Krieg, J.Chem.Phys., 132, (2010), 154104 
   

XCFun DFT library Copyright 2009-2010 Ulf Ekstrom and contributors.
See http://admol.org/xcfun for more information. This is free soft-
ware; see the source code for copying conditions. There is ABSOLUTELY
NO WARRANTY; not even for MERCHANTABILITY or FITNESS FOR A PARTICULAR
PURPOSE. For details see the documentation. Scientific users of this 
library should cite U. Ekstrom, L. Visscher, R. Bast, A. J. Thorvald-
sen and K. Ruud; J.Chem.Theor.Comp. 2010, DOI: 10.1021/ct100117s
XCFun Version 0.99 
----- Orbital basis set information -----
Your calculation utilizes the basis: def2-SVP
   F. Weigend and R. Ahlrichs, Phys. Chem. Chem. Phys. 7, 3297 (2005).

================================================================================
                                        WARNINGS
                       Please study these warnings very carefully!
================================================================================


INFO   : the flag for use of LIBINT has been found!

================================================================================
                                       INPUT FILE
================================================================================
NAME = config_2798.inp
|  1> ! wB97X-D3 SP def2-SVP
|  2> %pal
|  3> nprocs 16
|  4> end
|  5> 
|  6> * xyz 0 1
|  7> S 	 46.7585 	 15.2988 	 79.6277 	 
|  8> C 	 46.2918 	 16.7777 	 80.4077 	 
|  9> C 	 46.8123 	 16.9068 	 81.705 	 
| 10> C 	 47.4573 	 15.6515 	 82.0898 	 
| 11> C 	 47.5543 	 14.7091 	 81.0738 	 
| 12> H 	 47.879 	 15.4169 	 83.0272 	 
| 13> C 	 46.6712 	 18.0794 	 82.5818 	 
| 14> H 	 46.7141 	 19.0453 	 82.063 	 
| 15> H 	 47.4979 	 18.082 	 83.3001 	 
| 16> C 	 45.3222 	 18.0448 	 83.3341 	 
| 17> H 	 45.3728 	 17.1839 	 83.9388 	 
| 18> H 	 45.2995 	 18.987 	 83.8732 	 
| 19> C 	 44.0857 	 17.9256 	 82.4173 	 
| 20> H 	 43.9933 	 18.7636 	 81.7151 	 
| 21> H 	 44.1202 	 16.9773 	 81.9341 	 
| 22> H 	 43.1907 	 17.8574 	 83.0305 	 
| 23> S 	 47.2308 	 12.1042 	 82.0032 	 
| 24> C 	 48.4294 	 10.9638 	 81.451 	 
| 25> C 	 49.5192 	 11.5611 	 80.8458 	 
| 26> C 	 49.3388 	 12.9684 	 80.6087 	 
| 27> C 	 48.1351 	 13.3936 	 81.1791 	 
| 28> H 	 50.3978 	 10.9881 	 80.5604 	 
| 29> C 	 50.2778 	 13.7181 	 79.7253 	 
| 30> H 	 49.8782 	 14.6977 	 79.36 	 
| 31> H 	 50.3249 	 13.2263 	 78.7786 	 
| 32> C 	 51.6819 	 13.8634 	 80.2177 	 
| 33> H 	 52.2267 	 14.6135 	 79.6647 	 
| 34> H 	 52.0916 	 12.8461 	 80.1728 	 
| 35> C 	 51.9638 	 14.2893 	 81.6487 	 
| 36> H 	 53.0506 	 14.4012 	 81.7373 	 
| 37> H 	 51.8193 	 13.4822 	 82.4101 	 
| 38> H 	 51.3357 	 15.1709 	 81.9156 	 
| 39> H 	 45.7004 	 17.5518 	 79.9628 	 
| 40> H 	 48.3916 	 9.87581 	 81.6181 	 
| 41> *
| 42> 
| 43>                          ****END OF INPUT****
================================================================================

                       ****************************
                       * Single Point Calculation *
                       ****************************

---------------------------------
CARTESIAN COORDINATES (ANGSTROEM)
---------------------------------
  S     46.758500   15.298800   79.627700
  C     46.291800   16.777700   80.407700
  C     46.812300   16.906800   81.705000
  C     47.457300   15.651500   82.089800
  C     47.554300   14.709100   81.073800
  H     47.879000   15.416900   83.027200
  C     46.671200   18.079400   82.581800
  H     46.714100   19.045300   82.063000
  H     47.497900   18.082000   83.300100
  C     45.322200   18.044800   83.334100
  H     45.372800   17.183900   83.938800
  H     45.299500   18.987000   83.873200
  C     44.085700   17.925600   82.417300
  H     43.993300   18.763600   81.715100
  H     44.120200   16.977300   81.934100
  H     43.190700   17.857400   83.030500
  S     47.230800   12.104200   82.003200
  C     48.429400   10.963800   81.451000
  C     49.519200   11.561100   80.845800
  C     49.338800   12.968400   80.608700
  C     48.135100   13.393600   81.179100
  H     50.397800   10.988100   80.560400
  C     50.277800   13.718100   79.725300
  H     49.878200   14.697700   79.360000
  H     50.324900   13.226300   78.778600
  C     51.681900   13.863400   80.217700
  H     52.226700   14.613500   79.664700
  H     52.091600   12.846100   80.172800
  C     51.963800   14.289300   81.648700
  H     53.050600   14.401200   81.737300
  H     51.819300   13.482200   82.410100
  H     51.335700   15.170900   81.915600
  H     45.700400   17.551800   79.962800
  H     48.391600    9.875810   81.618100

----------------------------
CARTESIAN COORDINATES (A.U.)
----------------------------
  NO LB      ZA    FRAG     MASS         X           Y           Z
   0 S    16.0000    0    32.060   88.360759   28.910542  150.474546
   1 C     6.0000    0    12.011   87.478824   31.705258  151.948532
   2 C     6.0000    0    12.011   88.462427   31.949222  154.400074
   3 C     6.0000    0    12.011   89.681300   29.577049  155.127240
   4 C     6.0000    0    12.011   89.864603   27.796171  153.207279
   5 H     1.0000    0     1.008   90.478198   29.133719  156.898670
   6 C     6.0000    0    12.011   88.195786   34.165115  156.056986
   7 H     1.0000    0     1.008   88.276856   35.990401  155.076596
   8 H     1.0000    0     1.008   89.758023   34.170028  157.414376
   9 C     6.0000    0    12.011   85.646546   34.099730  157.478627
  10 H     1.0000    0     1.008   85.742166   32.472865  158.621344
  11 H     1.0000    0     1.008   85.603649   35.880230  158.497378
  12 C     6.0000    0    12.011   83.309899   33.874475  155.746126
  13 H     1.0000    0     1.008   83.135289   35.458065  154.419160
  14 H     1.0000    0     1.008   83.375095   32.082447  154.833010
  15 H     1.0000    0     1.008   81.618595   33.745595  156.904906
  16 S    16.0000    0    32.060   89.253277   22.873623  154.963590
  17 C     6.0000    0    12.011   91.518303   20.718579  153.920083
  18 C     6.0000    0    12.011   93.577726   21.847313  152.776421
  19 C     6.0000    0    12.011   93.236820   24.506724  152.328367
  20 C     6.0000    0    12.011   90.962156   25.310236  153.406267
  21 H     1.0000    0     1.008   95.238040   20.764500  152.237093
  22 C     6.0000    0    12.011   95.011273   25.923452  150.658983
  23 H     1.0000    0     1.008   94.256138   27.774628  149.968666
  24 H     1.0000    0     1.008   95.100279   24.994085  148.869979
  25 C     6.0000    0    12.011   97.664637   26.198029  151.589484
  26 H     1.0000    0     1.008   98.694160   27.615513  150.544466
  27 H     1.0000    0     1.008   98.438858   24.275611  151.504635
  28 C     6.0000    0    12.011   98.197351   27.002864  154.293682
  29 H     1.0000    0     1.008  100.251105   27.214324  154.461112
  30 H     1.0000    0     1.008   97.924285   25.477666  155.732520
  31 H     1.0000    0     1.008   97.010414   28.668846  154.798050
  32 H     1.0000    0     1.008   86.361240   33.168095  151.107793
  33 H     1.0000    0     1.008   91.446871   18.662576  154.235857

--------------------------------
INTERNAL COORDINATES (ANGSTROEM)
--------------------------------
 S      0   0   0     0.000000000000     0.00000000     0.00000000
 C      1   0   0     1.735901523705     0.00000000     0.00000000
 C      2   1   0     1.403771473567   113.19850180     0.00000000
 C      3   2   1     1.462830861720   109.12742789   352.26712133
 C      4   3   2     1.389166210358   114.86921891     7.31683885
 H      4   3   2     1.054318173039   126.95482774   184.63782350
 C      3   2   1     1.470944665853   126.05875842   175.65569926
 H      7   3   2     1.097249588745   114.59230275   322.92174184
 H      7   3   2     1.095168726727   108.68952086   204.35623001
 C      7   3   2     1.544976844487   110.86423401    83.50487388
 H     10   7   3     1.053266946220   104.82780883    63.35400400
 H     10   7   3     1.085764679845   103.92143164   184.60653288
 C     10   7   3     1.543911632834   114.32282052   304.75256843
 H     13  10   7     1.097208549001   112.86206575   299.63795083
 H     13  10   7     1.064868714913   108.19550703    65.57839397
 H     13  10   7     1.087055877129   109.22430504   177.13516657
 S      5   4   3     2.784589847715   112.48219845   215.96508207
 C     17   5   4     1.744155658191   115.22293781   227.92460833
 C     18  17   5     1.382280134416   113.44600508    12.10554130
 C     19  18  17     1.438490132048   113.33050072   350.65359487
 C     20  19  18     1.398229197950   109.76890452     5.68153000
 H     19  18  17     1.087069510197   121.62731765   172.52557995
 C     20  19  18     1.491364023302   120.69494602   192.52311356
 H     23  20  19     1.119258866393   114.11103253   161.95838441
 H     23  20  19     1.067860730620   108.74713791    54.39832886
 C     23  20  19     1.495013933045   116.42961471   293.26895622
 H     26  23  20     1.079474895493   111.88879411   194.46413992
 H     26  23  20     1.097619875002   104.30081288    68.60055658
 C     26  23  20     1.519414170001   120.77636033   313.32598946
 H     29  26  23     1.096132204618   106.77978358   184.53356907
 H     29  26  23     1.118937272594   114.50195886    76.72800411
 H     29  26  23     1.114882854833   110.03508001   312.82797690
 H      2   1   3     1.070943873413   125.28236132   177.74228883
 H     18  17   5     1.101396154932   125.04808094   187.66925067

---------------------------
INTERNAL COORDINATES (A.U.)
---------------------------
 S      0   0   0     0.000000000000     0.00000000     0.00000000
 C      1   0   0     3.280378475258     0.00000000     0.00000000
 C      2   1   0     2.652743639652   113.19850180     0.00000000
 C      3   2   1     2.764349708899   109.12742789   352.26712133
 C      4   3   2     2.625143692074   114.86921891     7.31683885
 H      4   3   2     1.992372605060   126.95482774   184.63782350
 C      3   2   1     2.779682576614   126.05875842   175.65569926
 H      7   3   2     2.073501223285   114.59230275   322.92174184
 H      7   3   2     2.069568963949   108.68952086   204.35623001
 C      7   3   2     2.919583119330   110.86423401    83.50487388
 H     10   7   3     1.990386074268   104.82780883    63.35400400
 H     10   7   3     2.051797890793   103.92143164   184.60653288
 C     10   7   3     2.917570161031   114.32282052   304.75256843
 H     13  10   7     2.073423669408   112.86206575   299.63795083
 H     13  10   7     2.012310239766   108.19550703    65.57839397
 H     13  10   7     2.054237900043   109.22430504   177.13516657
 S      5   4   3     5.262112207480   112.48219845   215.96508207
 C     17   5   4     3.295976528910   115.22293781   227.92460833
 C     18  17   5     2.612130894405   113.44600508    12.10554130
 C     19  18  17     2.718352395919   113.33050072   350.65359487
 C     20  19  18     2.642270256578   109.76890452     5.68153000
 H     19  18  17     2.054263662808   121.62731765   172.52557995
 C     20  19  18     2.818269570024   120.69494602   192.52311356
 H     23  20  19     2.115092730446   114.11103253   161.95838441
 H     23  20  19     2.017964330041   108.74713791    54.39832886
 C     23  20  19     2.825166899852   116.42961471   293.26895622
 H     26  23  20     2.039911920925   111.88879411   194.46413992
 H     26  23  20     2.074200962903   104.30081288    68.60055658
 C     26  23  20     2.871276665301   120.77636033   313.32598946
 H     29  26  23     2.071389673299   106.77978358   184.53356907
 H     29  26  23     2.114485006239   114.50195886    76.72800411
 H     29  26  23     2.106823267038   110.03508001   312.82797690
 H      2   1   3     2.023790625551   125.28236132   177.74228883
 H     18  17   5     2.081337097776   125.04808094   187.66925067

---------------------
BASIS SET INFORMATION
---------------------
There are 3 groups of distinct atoms

 Group   1 Type S   : 10s7p1d contracted to 4s3p1d pattern {5311/511/1}
 Group   2 Type C   : 7s4p1d contracted to 3s2p1d pattern {511/31/1}
 Group   3 Type H   : 4s1p contracted to 2s1p pattern {31/1}

Atom   0S    basis set group =>   1
Atom   1C    basis set group =>   2
Atom   2C    basis set group =>   2
Atom   3C    basis set group =>   2
Atom   4C    basis set group =>   2
Atom   5H    basis set group =>   3
Atom   6C    basis set group =>   2
Atom   7H    basis set group =>   3
Atom   8H    basis set group =>   3
Atom   9C    basis set group =>   2
Atom  10H    basis set group =>   3
Atom  11H    basis set group =>   3
Atom  12C    basis set group =>   2
Atom  13H    basis set group =>   3
Atom  14H    basis set group =>   3
Atom  15H    basis set group =>   3
Atom  16S    basis set group =>   1
Atom  17C    basis set group =>   2
Atom  18C    basis set group =>   2
Atom  19C    basis set group =>   2
Atom  20C    basis set group =>   2
Atom  21H    basis set group =>   3
Atom  22C    basis set group =>   2
Atom  23H    basis set group =>   3
Atom  24H    basis set group =>   3
Atom  25C    basis set group =>   2
Atom  26H    basis set group =>   3
Atom  27H    basis set group =>   3
Atom  28C    basis set group =>   2
Atom  29H    basis set group =>   3
Atom  30H    basis set group =>   3
Atom  31H    basis set group =>   3
Atom  32H    basis set group =>   3
Atom  33H    basis set group =>   3


           ************************************************************
           *        Program running with 16 parallel MPI-processes    *
           *              working on a common directory               *
           ************************************************************
------------------------------------------------------------------------------
                           ORCA GTO INTEGRAL CALCULATION
------------------------------------------------------------------------------

                         BASIS SET STATISTICS AND STARTUP INFO

 # of primitive gaussian shells          ...  294
 # of primitive gaussian functions       ...  534
 # of contracted shells                  ...  154
 # of contracted basis functions         ...  322
 Highest angular momentum                ...    2
 Maximum contraction depth               ...    5
 Integral package used                   ... LIBINT
 Integral threshhold            Thresh   ...  1.000e-10
 Primitive cut-off              TCut     ...  1.000e-11


------------------------------ INTEGRAL EVALUATION ----------------------------


 * One electron integrals 
 Pre-screening matrix                    ... done
 Shell pair data                         ... done (   0.003 sec)



           ************************************************************
           *        Program running with 16 parallel MPI-processes    *
           *              working on a common directory               *
           ************************************************************
-------------------------------------------------------------------------------
                                 ORCA SCF
-------------------------------------------------------------------------------

------------
SCF SETTINGS
------------
Hamiltonian:
 Density Functional     Method          .... DFT(GTOs)
 Exchange Functional    Exchange        .... WB97X-D3
 Correlation Functional Correlation     .... WB97X-D3
 Gradients option       PostSCFGGA      .... off
 Hybrid DFT is turned on
   Fraction HF Exchange ScalHFX         ....  0.195728
   Scaling of DF-GGA-X  ScalDFX         ....  0.000000
   Scaling of DF-GGA-C  ScalDFC         ....  1.000000
   Scaling of DF-LDA-C  ScalLDAC        ....  1.000000
   Perturbative correction              ....  0.000000
   Density functional embedding theory  .... OFF
 Long-range corrected/Screened/Range-Separated Hybrid DFT is turned on
   Amount of maximum screened exact exchange              ....  0.804272
   Range separation parameter mu (erf(mu*r12)/r12)        ....  0.250000


General Settings:
 Integral files         IntName         .... config_2798
 Hartree-Fock type      HFTyp           .... RHF
 Total Charge           Charge          ....    0
 Multiplicity           Mult            ....    1
 Number of Electrons    NEL             ....  134
 Basis Dimension        Dim             ....  322
 Nuclear Repulsion      ENuc            ....   1292.5917169648 Eh

Convergence Acceleration:
 DIIS                   CNVDIIS         .... on
   Start iteration      DIISMaxIt       ....    12
   Startup error        DIISStart       ....  0.200000
   # of expansion vecs  DIISMaxEq       ....     5
   Bias factor          DIISBfac        ....   1.050
   Max. coefficient     DIISMaxC        ....  10.000
 Newton-Raphson         CNVNR           .... off
 SOSCF                  CNVSOSCF        .... on
   Start iteration      SOSCFMaxIt      ....   150
   Startup grad/error   SOSCFStart      ....  0.003300
 Level Shifting         CNVShift        .... on
   Level shift para.    LevelShift      ....    0.2500
   Turn off err/grad.   ShiftErr        ....    0.0010
 Zerner damping         CNVZerner       .... off
 Static damping         CNVDamp         .... on
   Fraction old density DampFac         ....    0.7000
   Max. Damping (<1)    DampMax         ....    0.9800
   Min. Damping (>=0)   DampMin         ....    0.0000
   Turn off err/grad.   DampErr         ....    0.1000
 Fernandez-Rico         CNVRico         .... off

SCF Procedure:
 Maximum # iterations   MaxIter         ....   125
 SCF integral mode      SCFMode         .... Direct
   Integral package                     .... LIBINT
 Reset frequency        DirectResetFreq ....    20
 Integral Threshold     Thresh          ....  1.000e-10 Eh
 Primitive CutOff       TCut            ....  1.000e-11 Eh

Convergence Tolerance:
 Convergence Check Mode ConvCheckMode   .... Total+1el-Energy
 Convergence forced     ConvForced      .... 0
 Energy Change          TolE            ....  1.000e-06 Eh
 1-El. energy change                    ....  1.000e-03 Eh
 Orbital Gradient       TolG            ....  5.000e-05
 Orbital Rotation angle TolX            ....  5.000e-05
 DIIS Error             TolErr          ....  1.000e-06


Diagonalization of the overlap matrix:
Smallest eigenvalue                        ... 6.755e-04
Time for diagonalization                   ...    0.015 sec
Threshold for overlap eigenvalues          ... 1.000e-08
Number of eigenvalues below threshold      ... 0
Time for construction of square roots      ...    0.032 sec
Total time needed                          ...    0.047 sec

-------------------
DFT GRID GENERATION
-------------------

General Integration Accuracy     IntAcc      ...  4.340
Radial Grid Type                 RadialGrid  ... Gauss-Chebyshev
Angular Grid (max. acc.)         AngularGrid ... Lebedev-110
Angular grid pruning method      GridPruning ... 3 (G Style)
Weight generation scheme         WeightScheme... Becke
Basis function cutoff            BFCut       ...    1.0000e-10
Integration weight cutoff        WCut        ...    1.0000e-14
Grids for H and He will be reduced by one unit

# of grid points (after initial pruning)     ...  41088 (   0.0 sec)
# of grid points (after weights+screening)   ...  36882 (   0.0 sec)
nearest neighbour list constructed           ...    0.0 sec
Grid point re-assignment to atoms done       ...    0.0 sec
Grid point division into batches done        ...    0.0 sec
Reduced shell lists constructed in    0.1 sec

Total number of grid points                  ...    36882
Total number of batches                      ...      594
Average number of points per batch           ...       62
Average number of grid points per atom       ...     1085
Average number of shells per batch           ...    82.36 (53.48%)
Average number of basis functions per batch  ...   162.56 (50.49%)
Average number of large shells per batch     ...    53.13 (64.51%)
Average number of large basis fcns per batch ...   107.49 (66.12%)
Maximum spatial batch extension              ...  11.46, 12.18, 16.79 au
Average spatial batch extension              ...   0.20,  0.19,  0.20 au

Time for grid setup =    0.172 sec

------------------------------
INITIAL GUESS: MODEL POTENTIAL
------------------------------
Loading Hartree-Fock densities                     ... done
Calculating cut-offs                               ... done
Setting up the integral package                    ... done
Initializing the effective Hamiltonian             ... done
Starting the Coulomb interaction                   ... done (   0.0 sec)
Reading the grid                                   ... done
Mapping shells                                     ... done
Starting the XC term evaluation                    ... done (   0.0 sec)
  promolecular density results
     # of electrons  =    133.992602354
     EX              =   -126.733642124
     EC              =     -4.622474422
     EX+EC           =   -131.356116546
Transforming the Hamiltonian                       ... done (   0.0 sec)
Diagonalizing the Hamiltonian                      ... done (   0.0 sec)
Back transforming the eigenvectors                 ... done (   0.0 sec)
Now organizing SCF variables                       ... done
                      ------------------
                      INITIAL GUESS DONE (   0.4 sec)
                      ------------------
--------------
SCF ITERATIONS
--------------
ITER       Energy         Delta-E        Max-DP      RMS-DP      [F,P]     Damp
               ***  Starting incremental Fock matrix formation  ***
  0  -1339.4248805367   0.000000000000 0.06548029  0.00155948  0.1613001 0.7000
  1  -1339.6135607096  -0.188680172849 0.04403725  0.00114305  0.0974074 0.7000
                               ***Turning on DIIS***
  2  -1339.7057044583  -0.092143748713 0.08560799  0.00217968  0.0504448 0.0000
  3  -1339.8450817389  -0.139377280677 0.04456201  0.00094585  0.0387920 0.0000
  4  -1339.8744639111  -0.029382172182 0.00681389  0.00020350  0.0073049 0.0000
                      *** Initiating the SOSCF procedure ***
                           *** Shutting down DIIS ***
                      *** Re-Reading the Fockian *** 
                      *** Removing any level shift *** 
ITER      Energy       Delta-E        Grad      Rot      Max-DP    RMS-DP
  5  -1339.87541149  -0.0009475830  0.001403  0.001403  0.003295  0.000102
               *** Restarting incremental Fock matrix formation ***
  6  -1339.87559370  -0.0001822064  0.001371  0.003618  0.002294  0.000065
  7  -1339.87565507  -0.0000613683  0.000623  0.004026  0.002899  0.000065
  8  -1339.87567296  -0.0000178892  0.000279  0.000435  0.000697  0.000020
  9  -1339.87567689  -0.0000039340  0.000127  0.000325  0.000279  0.000008
                 **** Energy Check signals convergence ****
              ***Rediagonalizing the Fockian in SOSCF/NRSCF***

               *****************************************************
               *                     SUCCESS                       *
               *           SCF CONVERGED AFTER  10 CYCLES          *
               *****************************************************

Setting up the final grid:

General Integration Accuracy     IntAcc      ...  4.670
Radial Grid Type                 RadialGrid  ... Gauss-Chebyshev
Angular Grid (max. acc.)         AngularGrid ... Lebedev-302
Angular grid pruning method      GridPruning ... 3 (G Style)
Weight generation scheme         WeightScheme... Becke
Basis function cutoff            BFCut       ...    1.0000e-10
Integration weight cutoff        WCut        ...    1.0000e-14
Grids for H and He will be reduced by one unit

# of grid points (after initial pruning)     ... 161752 (   0.0 sec)
# of grid points (after weights+screening)   ... 142459 (   0.2 sec)
nearest neighbour list constructed           ...    0.0 sec
Grid point re-assignment to atoms done       ...    0.0 sec
Grid point division into batches done        ...    0.5 sec
Reduced shell lists constructed in    0.6 sec

Total number of grid points                  ...   142459
Total number of batches                      ...     2245
Average number of points per batch           ...       63
Average number of grid points per atom       ...     4190
Average number of shells per batch           ...    76.69 (49.80%)
Average number of basis functions per batch  ...   150.14 (46.63%)
Average number of large shells per batch     ...    48.11 (62.74%)
Average number of large basis fcns per batch ...    96.62 (64.35%)
Maximum spatial batch extension              ...  13.07, 13.14, 12.40 au
Average spatial batch extension              ...   0.14,  0.13,  0.13 au

Final grid set up in    0.9 sec
Final integration                            ... done (   0.3 sec)
Change in XC energy                          ...     0.008007979
Integrated number of electrons               ...   133.999784806
Previous integrated no of electrons          ...   134.002306946

----------------
TOTAL SCF ENERGY
----------------

Total Energy       :        -1339.86766935 Eh          -36459.65286 eV

Components:
Nuclear Repulsion  :         1292.59171696 Eh           35173.20879 eV
Electronic Energy  :        -2632.45938631 Eh          -71632.86165 eV
One Electron Energy:        -4401.96704572 Eh         -119783.61300 eV
Two Electron Energy:         1769.50765940 Eh           48150.75135 eV

Virial components:
Potential Energy   :        -2671.44636293 Eh          -72693.75121 eV
Kinetic Energy     :         1331.57869358 Eh           36234.09836 eV
Virial Ratio       :            2.00622492


DFT components:
N(Alpha)           :       66.999892403217 electrons
N(Beta)            :       66.999892403217 electrons
N(Total)           :      133.999784806433 electrons
E(XC)              :      -94.277460012839 Eh       
DFET-embed. en.    :        0.000000000000 Eh       

---------------
SCF CONVERGENCE
---------------

  Last Energy change         ...   -4.3730e-07  Tolerance :   1.0000e-06
  Last MAX-Density change    ...    1.5956e-04  Tolerance :   1.0000e-05
  Last RMS-Density change    ...    3.7191e-06  Tolerance :   1.0000e-06
  Last Orbital Gradient      ...    5.4997e-05  Tolerance :   5.0000e-05
  Last Orbital Rotation      ...    1.6547e-04  Tolerance :   5.0000e-05

             **** THE GBW FILE WAS UPDATED (config_2798.gbw) ****
             **** DENSITY FILE WAS UPDATED (config_2798.scfp) ****
             **** ENERGY FILE WAS UPDATED (config_2798.en.tmp) ****
             **** THE GBW FILE WAS UPDATED (config_2798.gbw) ****
             **** DENSITY FILE WAS UPDATED (config_2798.scfp) ****
----------------
ORBITAL ENERGIES
----------------

  NO   OCC          E(Eh)            E(eV) 
   0   2.0000     -88.968845     -2420.9654 
   1   2.0000     -88.965225     -2420.8669 
   2   2.0000     -10.324963      -280.9565 
   3   2.0000     -10.323190      -280.9083 
   4   2.0000     -10.319262      -280.8014 
   5   2.0000     -10.310504      -280.5631 
   6   2.0000     -10.304900      -280.4106 
   7   2.0000     -10.300774      -280.2983 
   8   2.0000     -10.294261      -280.1211 
   9   2.0000     -10.292154      -280.0637 
  10   2.0000     -10.288876      -279.9746 
  11   2.0000     -10.286481      -279.9094 
  12   2.0000     -10.281415      -279.7715 
  13   2.0000     -10.280816      -279.7552 
  14   2.0000     -10.276543      -279.6390 
  15   2.0000     -10.272447      -279.5275 
  16   2.0000      -8.083154      -219.9538 
  17   2.0000      -8.079729      -219.8606 
  18   2.0000      -6.041697      -164.4029 
  19   2.0000      -6.038181      -164.3073 
  20   2.0000      -6.037865      -164.2987 
  21   2.0000      -6.034201      -164.1990 
  22   2.0000      -6.033770      -164.1872 
  23   2.0000      -6.030645      -164.1022 
  24   2.0000      -1.002181       -27.2707 
  25   2.0000      -0.979934       -26.6654 
  26   2.0000      -0.915739       -24.9185 
  27   2.0000      -0.915270       -24.9058 
  28   2.0000      -0.865029       -23.5386 
  29   2.0000      -0.850275       -23.1372 
  30   2.0000      -0.843515       -22.9532 
  31   2.0000      -0.809429       -22.0257 
  32   2.0000      -0.788433       -21.4544 
  33   2.0000      -0.775853       -21.1120 
  34   2.0000      -0.705163       -19.1884 
  35   2.0000      -0.693339       -18.8667 
  36   2.0000      -0.684016       -18.6130 
  37   2.0000      -0.657068       -17.8797 
  38   2.0000      -0.642133       -17.4733 
  39   2.0000      -0.616679       -16.7807 
  40   2.0000      -0.601264       -16.3612 
  41   2.0000      -0.571810       -15.5597 
  42   2.0000      -0.560431       -15.2501 
  43   2.0000      -0.553830       -15.0705 
  44   2.0000      -0.548005       -14.9120 
  45   2.0000      -0.534906       -14.5555 
  46   2.0000      -0.517469       -14.0810 
  47   2.0000      -0.511825       -13.9275 
  48   2.0000      -0.499247       -13.5852 
  49   2.0000      -0.494900       -13.4669 
  50   2.0000      -0.489511       -13.3203 
  51   2.0000      -0.476462       -12.9652 
  52   2.0000      -0.466471       -12.6933 
  53   2.0000      -0.460910       -12.5420 
  54   2.0000      -0.457329       -12.4445 
  55   2.0000      -0.447831       -12.1861 
  56   2.0000      -0.445244       -12.1157 
  57   2.0000      -0.441233       -12.0065 
  58   2.0000      -0.431852       -11.7513 
  59   2.0000      -0.429730       -11.6936 
  60   2.0000      -0.416629       -11.3371 
  61   2.0000      -0.414685       -11.2842 
  62   2.0000      -0.401906       -10.9364 
  63   2.0000      -0.333760        -9.0821 
  64   2.0000      -0.331219        -9.0129 
  65   2.0000      -0.321294        -8.7428 
  66   2.0000      -0.299251        -8.1430 
  67   0.0000       0.045137         1.2282 
  68   0.0000       0.053760         1.4629 
  69   0.0000       0.106093         2.8869 
  70   0.0000       0.118975         3.2375 
  71   0.0000       0.126243         3.4353 
  72   0.0000       0.135922         3.6986 
  73   0.0000       0.146749         3.9933 
  74   0.0000       0.153801         4.1851 
  75   0.0000       0.167385         4.5548 
  76   0.0000       0.174932         4.7602 
  77   0.0000       0.188014         5.1161 
  78   0.0000       0.192681         5.2431 
  79   0.0000       0.198876         5.4117 
  80   0.0000       0.200682         5.4608 
  81   0.0000       0.208750         5.6804 
  82   0.0000       0.215454         5.8628 
  83   0.0000       0.219752         5.9798 
  84   0.0000       0.224655         6.1132 
  85   0.0000       0.231557         6.3010 
  86   0.0000       0.232790         6.3345 
  87   0.0000       0.240319         6.5394 
  88   0.0000       0.244256         6.6466 
  89   0.0000       0.253842         6.9074 
  90   0.0000       0.256261         6.9732 
  91   0.0000       0.264751         7.2042 
  92   0.0000       0.272383         7.4119 
  93   0.0000       0.299010         8.1365 
  94   0.0000       0.300785         8.1848 
  95   0.0000       0.310193         8.4408 
  96   0.0000       0.327740         8.9183 
  97   0.0000       0.346511         9.4290 
  98   0.0000       0.354159         9.6372 
  99   0.0000       0.369126        10.0444 
 100   0.0000       0.387325        10.5396 
 101   0.0000       0.397574        10.8185 
 102   0.0000       0.414002        11.2656 
 103   0.0000       0.419130        11.4051 
 104   0.0000       0.441638        12.0176 
 105   0.0000       0.451688        12.2911 
 106   0.0000       0.464005        12.6262 
 107   0.0000       0.471047        12.8178 
 108   0.0000       0.482850        13.1390 
 109   0.0000       0.493416        13.4265 
 110   0.0000       0.496205        13.5024 
 111   0.0000       0.511547        13.9199 
 112   0.0000       0.519717        14.1422 
 113   0.0000       0.530853        14.4453 
 114   0.0000       0.536590        14.6013 
 115   0.0000       0.539400        14.6778 
 116   0.0000       0.546169        14.8620 
 117   0.0000       0.556861        15.1530 
 118   0.0000       0.560996        15.2655 
 119   0.0000       0.568818        15.4783 
 120   0.0000       0.575672        15.6648 
 121   0.0000       0.602962        16.4074 
 122   0.0000       0.606612        16.5067 
 123   0.0000       0.613084        16.6829 
 124   0.0000       0.624179        16.9848 
 125   0.0000       0.628701        17.1078 
 126   0.0000       0.638134        17.3645 
 127   0.0000       0.640229        17.4215 
 128   0.0000       0.656295        17.8587 
 129   0.0000       0.661040        17.9878 
 130   0.0000       0.674381        18.3508 
 131   0.0000       0.686619        18.6839 
 132   0.0000       0.693164        18.8619 
 133   0.0000       0.700448        19.0602 
 134   0.0000       0.709251        19.2997 
 135   0.0000       0.717766        19.5314 
 136   0.0000       0.726682        19.7740 
 137   0.0000       0.732708        19.9380 
 138   0.0000       0.736198        20.0330 
 139   0.0000       0.739406        20.1203 
 140   0.0000       0.748603        20.3705 
 141   0.0000       0.755912        20.5694 
 142   0.0000       0.756520        20.5860 
 143   0.0000       0.757692        20.6178 
 144   0.0000       0.762410        20.7462 
 145   0.0000       0.768490        20.9117 
 146   0.0000       0.771345        20.9894 
 147   0.0000       0.773734        21.0544 
 148   0.0000       0.782797        21.3010 
 149   0.0000       0.787358        21.4251 
 150   0.0000       0.790035        21.4980 
 151   0.0000       0.793490        21.5920 
 152   0.0000       0.801825        21.8188 
 153   0.0000       0.806727        21.9522 
 154   0.0000       0.808543        22.0016 
 155   0.0000       0.812217        22.1015 
 156   0.0000       0.816791        22.2260 
 157   0.0000       0.821248        22.3473 
 158   0.0000       0.823036        22.3959 
 159   0.0000       0.826893        22.5009 
 160   0.0000       0.832372        22.6500 
 161   0.0000       0.833519        22.6812 
 162   0.0000       0.843887        22.9633 
 163   0.0000       0.847913        23.0729 
 164   0.0000       0.855504        23.2795 
 165   0.0000       0.865761        23.5585 
 166   0.0000       0.874812        23.8048 
 167   0.0000       0.877962        23.8906 
 168   0.0000       0.885660        24.1000 
 169   0.0000       0.889408        24.2020 
 170   0.0000       0.897399        24.4195 
 171   0.0000       0.906474        24.6664 
 172   0.0000       0.935724        25.4623 
 173   0.0000       0.937585        25.5130 
 174   0.0000       0.958399        26.0794 
 175   0.0000       0.965384        26.2694 
 176   0.0000       0.966823        26.3086 
 177   0.0000       0.993760        27.0416 
 178   0.0000       1.010061        27.4852 
 179   0.0000       1.023133        27.8409 
 180   0.0000       1.064022        28.9535 
 181   0.0000       1.072225        29.1767 
 182   0.0000       1.109820        30.1997 
 183   0.0000       1.116772        30.3889 
 184   0.0000       1.126344        30.6494 
 185   0.0000       1.143395        31.1134 
 186   0.0000       1.165265        31.7085 
 187   0.0000       1.170543        31.8521 
 188   0.0000       1.199222        32.6325 
 189   0.0000       1.216593        33.1052 
 190   0.0000       1.237015        33.6609 
 191   0.0000       1.255000        34.1503 
 192   0.0000       1.267603        34.4932 
 193   0.0000       1.277527        34.7633 
 194   0.0000       1.292819        35.1794 
 195   0.0000       1.306268        35.5454 
 196   0.0000       1.327571        36.1251 
 197   0.0000       1.335831        36.3498 
 198   0.0000       1.349961        36.7343 
 199   0.0000       1.374870        37.4121 
 200   0.0000       1.386032        37.7159 
 201   0.0000       1.394704        37.9518 
 202   0.0000       1.412702        38.4416 
 203   0.0000       1.427430        38.8423 
 204   0.0000       1.456008        39.6200 
 205   0.0000       1.465271        39.8721 
 206   0.0000       1.486619        40.4529 
 207   0.0000       1.495476        40.6940 
 208   0.0000       1.528161        41.5834 
 209   0.0000       1.556200        42.3464 
 210   0.0000       1.563961        42.5575 
 211   0.0000       1.573556        42.8186 
 212   0.0000       1.623806        44.1860 
 213   0.0000       1.624896        44.2157 
 214   0.0000       1.633089        44.4386 
 215   0.0000       1.660913        45.1958 
 216   0.0000       1.704037        46.3692 
 217   0.0000       1.730223        47.0818 
 218   0.0000       1.762828        47.9690 
 219   0.0000       1.787553        48.6418 
 220   0.0000       1.794718        48.8368 
 221   0.0000       1.813979        49.3609 
 222   0.0000       1.830274        49.8043 
 223   0.0000       1.833315        49.8870 
 224   0.0000       1.838099        50.0172 
 225   0.0000       1.847243        50.2660 
 226   0.0000       1.852546        50.4103 
 227   0.0000       1.855001        50.4772 
 228   0.0000       1.858995        50.5858 
 229   0.0000       1.862649        50.6853 
 230   0.0000       1.877378        51.0860 
 231   0.0000       1.880894        51.1817 
 232   0.0000       1.889989        51.4292 
 233   0.0000       1.892157        51.4882 
 234   0.0000       1.899831        51.6970 
 235   0.0000       1.909236        51.9530 
 236   0.0000       1.914732        52.1025 
 237   0.0000       1.925705        52.4011 
 238   0.0000       1.932100        52.5751 
 239   0.0000       1.947039        52.9816 
 240   0.0000       1.958142        53.2838 
 241   0.0000       1.972058        53.6624 
 242   0.0000       1.978592        53.8402 
 243   0.0000       1.983692        53.9790 
 244   0.0000       1.991327        54.1868 
 245   0.0000       1.996104        54.3167 
 246   0.0000       2.001562        54.4653 
 247   0.0000       2.010417        54.7062 
 248   0.0000       2.021786        55.0156 
 249   0.0000       2.038624        55.4738 
 250   0.0000       2.042023        55.5663 
 251   0.0000       2.051759        55.8312 
 252   0.0000       2.058069        56.0029 
 253   0.0000       2.079337        56.5816 
 254   0.0000       2.089305        56.8529 
 255   0.0000       2.097591        57.0784 
 256   0.0000       2.120492        57.7015 
 257   0.0000       2.136444        58.1356 
 258   0.0000       2.148767        58.4709 
 259   0.0000       2.163762        58.8790 
 260   0.0000       2.167699        58.9861 
 261   0.0000       2.176114        59.2151 
 262   0.0000       2.204503        59.9876 
 263   0.0000       2.217073        60.3296 
 264   0.0000       2.224496        60.5316 
 265   0.0000       2.255378        61.3720 
 266   0.0000       2.258958        61.4694 
 267   0.0000       2.282564        62.1117 
 268   0.0000       2.290266        62.3213 
 269   0.0000       2.309242        62.8377 
 270   0.0000       2.323423        63.2236 
 271   0.0000       2.347400        63.8760 
 272   0.0000       2.359729        64.2115 
 273   0.0000       2.377526        64.6958 
 274   0.0000       2.405921        65.4685 
 275   0.0000       2.410737        65.5995 
 276   0.0000       2.423451        65.9455 
 277   0.0000       2.447493        66.5997 
 278   0.0000       2.462408        67.0055 
 279   0.0000       2.471705        67.2585 
 280   0.0000       2.477185        67.4076 
 281   0.0000       2.490865        67.7799 
 282   0.0000       2.512725        68.3747 
 283   0.0000       2.524571        68.6971 
 284   0.0000       2.533909        68.9512 
 285   0.0000       2.551897        69.4406 
 286   0.0000       2.571482        69.9736 
 287   0.0000       2.574000        70.0421 
 288   0.0000       2.609637        71.0118 
 289   0.0000       2.646895        72.0257 
 290   0.0000       2.673820        72.7583 
 291   0.0000       2.693936        73.3057 
 292   0.0000       2.698540        73.4310 
 293   0.0000       2.705943        73.6324 
 294   0.0000       2.718998        73.9877 
 295   0.0000       2.730073        74.2891 
 296   0.0000       2.784225        75.7626 
 297   0.0000       2.786079        75.8131 
 298   0.0000       2.802356        76.2560 
 299   0.0000       2.816891        76.6515 
 300   0.0000       2.862889        77.9032 
 301   0.0000       2.885871        78.5286 
 302   0.0000       2.893379        78.7329 
 303   0.0000       2.907327        79.1124 
 304   0.0000       2.948648        80.2368 
 305   0.0000       2.979549        81.0776 
 306   0.0000       2.996884        81.5493 
 307   0.0000       3.034522        82.5736 
 308   0.0000       3.037515        82.6550 
 309   0.0000       3.071700        83.5852 
 310   0.0000       3.074417        83.6591 
 311   0.0000       3.089393        84.0667 
 312   0.0000       3.097816        84.2958 
 313   0.0000       3.111088        84.6570 
 314   0.0000       3.136727        85.3547 
 315   0.0000       3.152261        85.7774 
 316   0.0000       3.165067        86.1258 
 317   0.0000       3.184025        86.6417 
 318   0.0000       3.263199        88.7962 
 319   0.0000       3.289448        89.5104 
 320   0.0000       3.374134        91.8148 
 321   0.0000       3.417561        92.9966 

                    ********************************
                    * MULLIKEN POPULATION ANALYSIS *
                    ********************************

-----------------------
MULLIKEN ATOMIC CHARGES
-----------------------
   0 S :    0.126122
   1 C :   -0.116623
   2 C :   -0.109129
   3 C :    0.046948
   4 C :   -0.176497
   5 H :   -0.006757
   6 C :    0.064052
   7 H :    0.026655
   8 H :    0.026235
   9 C :   -0.050855
  10 H :    0.017736
  11 H :    0.032470
  12 C :   -0.056813
  13 H :    0.032025
  14 H :    0.043138
  15 H :    0.030787
  16 S :    0.127859
  17 C :   -0.101684
  18 C :   -0.040170
  19 C :   -0.006600
  20 C :   -0.190946
  21 H :    0.023085
  22 C :    0.105500
  23 H :    0.018388
  24 H :    0.027513
  25 C :   -0.097202
  26 H :    0.036095
  27 H :    0.024326
  28 C :   -0.063584
  29 H :    0.031395
  30 H :    0.028297
  31 H :    0.044146
  32 H :    0.039994
  33 H :    0.064095
Sum of atomic charges:   -0.0000000

--------------------------------
MULLIKEN REDUCED ORBITAL CHARGES
--------------------------------
  0 S s       :     5.838926  s :     5.838926
      pz      :     3.320637  p :     9.926214
      px      :     3.465553
      py      :     3.140024
      dz2     :     0.018920  d :     0.108738
      dxz     :     0.019750
      dyz     :     0.029749
      dx2y2   :     0.024381
      dxy     :     0.015938
  1 C s       :     3.173820  s :     3.173820
      pz      :     0.977817  p :     2.909460
      px      :     1.047595
      py      :     0.884048
      dz2     :     0.007084  d :     0.033343
      dxz     :     0.007059
      dyz     :     0.009229
      dx2y2   :     0.004590
      dxy     :     0.005381
  2 C s       :     3.101143  s :     3.101143
      pz      :     0.979356  p :     2.965127
      px      :     1.002287
      py      :     0.983485
      dz2     :     0.010410  d :     0.042859
      dxz     :     0.007155
      dyz     :     0.011006
      dx2y2   :     0.007251
      dxy     :     0.007037
  3 C s       :     3.193071  s :     3.193071
      pz      :     0.840862  p :     2.726612
      px      :     0.981439
      py      :     0.904311
      dz2     :     0.006916  d :     0.033370
      dxz     :     0.005281
      dyz     :     0.009547
      dx2y2   :     0.005568
      dxy     :     0.006058
  4 C s       :     3.070788  s :     3.070788
      pz      :     0.952908  p :     3.060415
      px      :     1.072915
      py      :     1.034593
      dz2     :     0.009574  d :     0.045293
      dxz     :     0.009198
      dyz     :     0.012546
      dx2y2   :     0.007268
      dxy     :     0.006708
  5 H s       :     0.981414  s :     0.981414
      pz      :     0.013625  p :     0.025343
      px      :     0.007263
      py      :     0.004455
  6 C s       :     2.967087  s :     2.967087
      pz      :     0.977919  p :     2.932204
      px      :     0.989218
      py      :     0.965067
      dz2     :     0.003370  d :     0.036658
      dxz     :     0.009660
      dyz     :     0.009569
      dx2y2   :     0.009895
      dxy     :     0.004164
  7 H s       :     0.950925  s :     0.950925
      pz      :     0.006355  p :     0.022420
      px      :     0.004527
      py      :     0.011538
  8 H s       :     0.950742  s :     0.950742
      pz      :     0.008704  p :     0.023023
      px      :     0.009933
      py      :     0.004386
  9 C s       :     3.028536  s :     3.028536
      pz      :     1.033805  p :     2.985410
      px      :     0.952232
      py      :     0.999373
      dz2     :     0.002977  d :     0.036910
      dxz     :     0.008790
      dyz     :     0.010288
      dx2y2   :     0.011202
      dxy     :     0.003652
 10 H s       :     0.957969  s :     0.957969
      pz      :     0.008038  p :     0.024294
      px      :     0.004687
      py      :     0.011569
 11 H s       :     0.944980  s :     0.944980
      pz      :     0.006606  p :     0.022550
      px      :     0.004299
      py      :     0.011645
 12 C s       :     3.005751  s :     3.005751
      pz      :     1.014658  p :     3.023081
      px      :     0.989820
      py      :     1.018604
      dz2     :     0.001789  d :     0.027981
      dxz     :     0.007861
      dyz     :     0.008264
      dx2y2   :     0.008368
      dxy     :     0.001699
 13 H s       :     0.944772  s :     0.944772
      pz      :     0.008499  p :     0.023203
      px      :     0.004258
      py      :     0.010447
 14 H s       :     0.931314  s :     0.931314
      pz      :     0.007325  p :     0.025548
      px      :     0.005284
      py      :     0.012939
 15 H s       :     0.945092  s :     0.945092
      pz      :     0.007877  p :     0.024121
      px      :     0.010766
      py      :     0.005478
 16 S s       :     5.845453  s :     5.845453
      pz      :     3.553529  p :     9.923471
      px      :     3.412465
      py      :     2.957477
      dz2     :     0.011083  d :     0.103217
      dxz     :     0.012919
      dyz     :     0.028119
      dx2y2   :     0.013127
      dxy     :     0.037969
 17 C s       :     3.152838  s :     3.152838
      pz      :     1.038959  p :     2.913837
      px      :     0.960002
      py      :     0.914875
      dz2     :     0.005424  d :     0.035009
      dxz     :     0.005614
      dyz     :     0.004901
      dx2y2   :     0.009269
      dxy     :     0.009801
 18 C s       :     3.178778  s :     3.178778
      pz      :     1.004959  p :     2.827185
      px      :     0.884121
      py      :     0.938105
      dz2     :     0.004350  d :     0.034207
      dxz     :     0.004364
      dyz     :     0.006076
      dx2y2   :     0.009085
      dxy     :     0.010332
 19 C s       :     3.068770  s :     3.068770
      pz      :     0.959288  p :     2.894498
      px      :     0.961948
      py      :     0.973262
      dz2     :     0.006857  d :     0.043332
      dxz     :     0.007188
      dyz     :     0.008092
      dx2y2   :     0.012633
      dxy     :     0.008562
 20 C s       :     3.065087  s :     3.065087
      pz      :     1.076836  p :     3.082118
      px      :     1.024056
      py      :     0.981227
      dz2     :     0.006056  d :     0.043741
      dxz     :     0.005661
      dyz     :     0.007087
      dx2y2   :     0.010813
      dxy     :     0.014125
 21 H s       :     0.953549  s :     0.953549
      pz      :     0.005601  p :     0.023365
      px      :     0.011308
      py      :     0.006457
 22 C s       :     2.912020  s :     2.912020
      pz      :     0.974911  p :     2.944926
      px      :     0.955383
      py      :     1.014632
      dz2     :     0.007640  d :     0.037554
      dxz     :     0.007075
      dyz     :     0.007565
      dx2y2   :     0.007149
      dxy     :     0.008126
 23 H s       :     0.958628  s :     0.958628
      pz      :     0.005517  p :     0.022984
      px      :     0.004823
      py      :     0.012645
 24 H s       :     0.947662  s :     0.947662
      pz      :     0.012359  p :     0.024825
      px      :     0.004690
      py      :     0.007776
 25 C s       :     3.044118  s :     3.044118
      pz      :     1.020361  p :     3.014281
      px      :     1.000230
      py      :     0.993691
      dz2     :     0.008766  d :     0.038803
      dxz     :     0.008310
      dyz     :     0.006679
      dx2y2   :     0.007081
      dxy     :     0.007967
 26 H s       :     0.940420  s :     0.940420
      pz      :     0.007682  p :     0.023484
      px      :     0.006564
      py      :     0.009239
 27 H s       :     0.952982  s :     0.952982
      pz      :     0.004665  p :     0.022691
      px      :     0.005600
      py      :     0.012427
 28 C s       :     3.028763  s :     3.028763
      pz      :     0.977487  p :     3.006130
      px      :     0.996872
      py      :     1.031771
      dz2     :     0.007861  d :     0.028691
      dxz     :     0.003089
      dyz     :     0.008452
      dx2y2   :     0.006092
      dxy     :     0.003198
 29 H s       :     0.944945  s :     0.944945
      pz      :     0.004772  p :     0.023660
      px      :     0.013820
      py      :     0.005068
 30 H s       :     0.948863  s :     0.948863
      pz      :     0.008168  p :     0.022840
      px      :     0.005483
      py      :     0.009189
 31 H s       :     0.933834  s :     0.933834
      pz      :     0.004479  p :     0.022020
      px      :     0.007224
      py      :     0.010316
 32 H s       :     0.935828  s :     0.935828
      pz      :     0.005667  p :     0.024178
      px      :     0.008711
      py      :     0.009800
 33 H s       :     0.913024  s :     0.913024
      pz      :     0.004796  p :     0.022881
      px      :     0.003226
      py      :     0.014859


                     *******************************
                     * LOEWDIN POPULATION ANALYSIS *
                     *******************************

----------------------
LOEWDIN ATOMIC CHARGES
----------------------
   0 S :    0.413727
   1 C :   -0.199643
   2 C :   -0.061400
   3 C :   -0.054111
   4 C :   -0.202147
   5 H :    0.022195
   6 C :   -0.037243
   7 H :    0.030625
   8 H :    0.032901
   9 C :   -0.027243
  10 H :    0.017862
  11 H :    0.023079
  12 C :   -0.064588
  13 H :    0.022961
  14 H :    0.023780
  15 H :    0.027990
  16 S :    0.400868
  17 C :   -0.187297
  18 C :   -0.071325
  19 C :   -0.042554
  20 C :   -0.200050
  21 H :    0.031381
  22 C :   -0.040361
  23 H :    0.031598
  24 H :    0.035455
  25 C :   -0.046560
  26 H :    0.028875
  27 H :    0.024250
  28 C :   -0.072860
  29 H :    0.028428
  30 H :    0.025424
  31 H :    0.029208
  32 H :    0.022678
  33 H :    0.034098

-------------------------------
LOEWDIN REDUCED ORBITAL CHARGES
-------------------------------
  0 S s       :     5.501941  s :     5.501941
      pz      :     3.359604  p :     9.949023
      px      :     3.441095
      py      :     3.148324
      dz2     :     0.021961  d :     0.135309
      dxz     :     0.024089
      dyz     :     0.037649
      dx2y2   :     0.031119
      dxy     :     0.020490
  1 C s       :     2.930551  s :     2.930551
      pz      :     1.070278  p :     3.189106
      px      :     1.090826
      py      :     1.028001
      dz2     :     0.018872  d :     0.079985
      dxz     :     0.016851
      dyz     :     0.023219
      dx2y2   :     0.009473
      dxy     :     0.011570
  2 C s       :     2.864988  s :     2.864988
      pz      :     1.056654  p :     3.089975
      px      :     0.993234
      py      :     1.040086
      dz2     :     0.028453  d :     0.106437
      dxz     :     0.016769
      dyz     :     0.028482
      dx2y2   :     0.016315
      dxy     :     0.016417
  3 C s       :     2.868467  s :     2.868467
      pz      :     1.054670  p :     3.097490
      px      :     1.018990
      py      :     1.023830
      dz2     :     0.020241  d :     0.088154
      dxz     :     0.012117
      dyz     :     0.027822
      dx2y2   :     0.013410
      dxy     :     0.014563
  4 C s       :     2.905871  s :     2.905871
      pz      :     1.045241  p :     3.188168
      px      :     1.065975
      py      :     1.076952
      dz2     :     0.023450  d :     0.108108
      dxz     :     0.019589
      dyz     :     0.032577
      dx2y2   :     0.017447
      dxy     :     0.015046
  5 H s       :     0.901934  s :     0.901934
      pz      :     0.038730  p :     0.075871
      px      :     0.022095
      py      :     0.015046
  6 C s       :     2.822782  s :     2.822782
      pz      :     1.047789  p :     3.121673
      px      :     1.036874
      py      :     1.037010
      dz2     :     0.007383  d :     0.092788
      dxz     :     0.025005
      dyz     :     0.025201
      dx2y2   :     0.027424
      dxy     :     0.007776
  7 H s       :     0.903501  s :     0.903501
      pz      :     0.018824  p :     0.065874
      px      :     0.013802
      py      :     0.033248
  8 H s       :     0.900833  s :     0.900833
      pz      :     0.025009  p :     0.066266
      px      :     0.029003
      py      :     0.012254
  9 C s       :     2.827750  s :     2.827750
      pz      :     1.048682  p :     3.110010
      px      :     1.000919
      py      :     1.060410
      dz2     :     0.005384  d :     0.089483
      dxz     :     0.022980
      dyz     :     0.025086
      dx2y2   :     0.029519
      dxy     :     0.006514
 10 H s       :     0.907660  s :     0.907660
      pz      :     0.024883  p :     0.074478
      px      :     0.016323
      py      :     0.033272
 11 H s       :     0.908769  s :     0.908769
      pz      :     0.020633  p :     0.068152
      px      :     0.014398
      py      :     0.033121
 12 C s       :     2.829503  s :     2.829503
      pz      :     1.060354  p :     3.163954
      px      :     1.034596
      py      :     1.069004
      dz2     :     0.003742  d :     0.071132
      dxz     :     0.020949
      dyz     :     0.020907
      dx2y2   :     0.022487
      dxy     :     0.003046
 13 H s       :     0.912024  s :     0.912024
      pz      :     0.023948  p :     0.065015
      px      :     0.012843
      py      :     0.028224
 14 H s       :     0.902242  s :     0.902242
      pz      :     0.020624  p :     0.073978
      px      :     0.016185
      py      :     0.037169
 15 H s       :     0.904696  s :     0.904696
      pz      :     0.022241  p :     0.067314
      px      :     0.031325
      py      :     0.013748
 16 S s       :     5.522370  s :     5.522370
      pz      :     3.541337  p :     9.949477
      px      :     3.431921
      py      :     2.976219
      dz2     :     0.012634  d :     0.127285
      dxz     :     0.013944
      dyz     :     0.035805
      dx2y2   :     0.015740
      dxy     :     0.049162
 17 C s       :     2.938054  s :     2.938054
      pz      :     1.065695  p :     3.167533
      px      :     1.058377
      py      :     1.043461
      dz2     :     0.010635  d :     0.081711
      dxz     :     0.013000
      dyz     :     0.010694
      dx2y2   :     0.023012
      dxy     :     0.024370
 18 C s       :     2.870828  s :     2.870828
      pz      :     1.026738  p :     3.111356
      px      :     1.047533
      py      :     1.037085
      dz2     :     0.009069  d :     0.089141
      dxz     :     0.011079
      dyz     :     0.014467
      dx2y2   :     0.026467
      dxy     :     0.028058
 19 C s       :     2.859771  s :     2.859771
      pz      :     0.998038  p :     3.074475
      px      :     1.029950
      py      :     1.046487
      dz2     :     0.014362  d :     0.108308
      dxz     :     0.018011
      dyz     :     0.018550
      dx2y2   :     0.034727
      dxy     :     0.022658
 20 C s       :     2.905464  s :     2.905464
      pz      :     1.083442  p :     3.189102
      px      :     1.077594
      py      :     1.028067
      dz2     :     0.012922  d :     0.105484
      dxz     :     0.013641
      dyz     :     0.016710
      dx2y2   :     0.026842
      dxy     :     0.035369
 21 H s       :     0.899142  s :     0.899142
      pz      :     0.017085  p :     0.069477
      px      :     0.031853
      py      :     0.020538
 22 C s       :     2.812560  s :     2.812560
      pz      :     1.038599  p :     3.132225
      px      :     1.029425
      py      :     1.064202
      dz2     :     0.018749  d :     0.095576
      dxz     :     0.019388
      dyz     :     0.019416
      dx2y2   :     0.019095
      dxy     :     0.018929
 23 H s       :     0.904386  s :     0.904386
      pz      :     0.015450  p :     0.064016
      px      :     0.015227
      py      :     0.033339
 24 H s       :     0.891714  s :     0.891714
      pz      :     0.036054  p :     0.072831
      px      :     0.015225
      py      :     0.021552
 25 C s       :     2.821292  s :     2.821292
      pz      :     1.048646  p :     3.129582
      px      :     1.033519
      py      :     1.047417
      dz2     :     0.022856  d :     0.095686
      dxz     :     0.019106
      dyz     :     0.015657
      dx2y2   :     0.019284
      dxy     :     0.018783
 26 H s       :     0.901233  s :     0.901233
      pz      :     0.022738  p :     0.069892
      px      :     0.020810
      py      :     0.026344
 27 H s       :     0.909002  s :     0.909002
      pz      :     0.014490  p :     0.066748
      px      :     0.017254
      py      :     0.035003
 28 C s       :     2.844715  s :     2.844715
      pz      :     1.026753  p :     3.156088
      px      :     1.058689
      py      :     1.070647
      dz2     :     0.020361  d :     0.072057
      dxz     :     0.007433
      dyz     :     0.020197
      dx2y2   :     0.015119
      dxy     :     0.008947
 29 H s       :     0.905040  s :     0.905040
      pz      :     0.013944  p :     0.066533
      px      :     0.039127
      py      :     0.013461
 30 H s       :     0.911768  s :     0.911768
      pz      :     0.024087  p :     0.062808
      px      :     0.013069
      py      :     0.025651
 31 H s       :     0.907839  s :     0.907839
      pz      :     0.013745  p :     0.062953
      px      :     0.020015
      py      :     0.029193
 32 H s       :     0.899902  s :     0.899902
      pz      :     0.018013  p :     0.077420
      px      :     0.026799
      py      :     0.032608
 33 H s       :     0.894737  s :     0.894737
      pz      :     0.015288  p :     0.071165
      px      :     0.011713
      py      :     0.044163


                      *****************************
                      * MAYER POPULATION ANALYSIS *
                      *****************************

  NA   - Mulliken gross atomic population
  ZA   - Total nuclear charge
  QA   - Mulliken gross atomic charge
  VA   - Mayer's total valence
  BVA  - Mayer's bonded valence
  FA   - Mayer's free valence

  ATOM       NA         ZA         QA         VA         BVA        FA
  0 S     15.8739    16.0000     0.1261     2.4869     2.4869    -0.0000
  1 C      6.1166     6.0000    -0.1166     3.8456     3.8456    -0.0000
  2 C      6.1091     6.0000    -0.1091     3.9989     3.9989    -0.0000
  3 C      5.9531     6.0000     0.0469     3.9277     3.9277     0.0000
  4 C      6.1765     6.0000    -0.1765     3.9306     3.9306    -0.0000
  5 H      1.0068     1.0000    -0.0068     1.0069     1.0069     0.0000
  6 C      5.9359     6.0000     0.0641     3.9636     3.9636     0.0000
  7 H      0.9733     1.0000     0.0267     0.9847     0.9847    -0.0000
  8 H      0.9738     1.0000     0.0262     0.9858     0.9858     0.0000
  9 C      6.0509     6.0000    -0.0509     4.1004     4.1004     0.0000
 10 H      0.9823     1.0000     0.0177     0.9822     0.9822    -0.0000
 11 H      0.9675     1.0000     0.0325     0.9760     0.9760     0.0000
 12 C      6.0568     6.0000    -0.0568     4.0047     4.0047     0.0000
 13 H      0.9680     1.0000     0.0320     0.9895     0.9895     0.0000
 14 H      0.9569     1.0000     0.0431     0.9983     0.9983     0.0000
 15 H      0.9692     1.0000     0.0308     0.9888     0.9888    -0.0000
 16 S     15.8721    16.0000     0.1279     2.4591     2.4591    -0.0000
 17 C      6.1017     6.0000    -0.1017     3.8490     3.8490     0.0000
 18 C      6.0402     6.0000    -0.0402     3.9514     3.9514    -0.0000
 19 C      6.0066     6.0000    -0.0066     4.0253     4.0253    -0.0000
 20 C      6.1909     6.0000    -0.1909     3.9126     3.9126    -0.0000
 21 H      0.9769     1.0000     0.0231     0.9949     0.9949     0.0000
 22 C      5.8945     6.0000     0.1055     3.9541     3.9541    -0.0000
 23 H      0.9816     1.0000     0.0184     0.9998     0.9998    -0.0000
 24 H      0.9725     1.0000     0.0275     0.9818     0.9818    -0.0000
 25 C      6.0972     6.0000    -0.0972     4.1277     4.1277    -0.0000
 26 H      0.9639     1.0000     0.0361     0.9780     0.9780    -0.0000
 27 H      0.9757     1.0000     0.0243     0.9779     0.9779    -0.0000
 28 C      6.0636     6.0000    -0.0636     3.9918     3.9918    -0.0000
 29 H      0.9686     1.0000     0.0314     0.9840     0.9840    -0.0000
 30 H      0.9717     1.0000     0.0283     0.9876     0.9876    -0.0000
 31 H      0.9559     1.0000     0.0441     0.9919     0.9919     0.0000
 32 H      0.9600     1.0000     0.0400     1.0103     1.0103    -0.0000
 33 H      0.9359     1.0000     0.0641     0.9934     0.9934     0.0000

  Mayer bond orders larger than 0.100000
B(  0-S ,  1-C ) :   1.1500 B(  0-S ,  4-C ) :   1.1391 B(  1-C ,  2-C ) :   1.5948 
B(  1-C , 32-H ) :   0.9663 B(  2-C ,  3-C ) :   1.2247 B(  2-C ,  6-C ) :   1.0448 
B(  3-C ,  4-C ) :   1.5955 B(  3-C ,  5-H ) :   0.9978 B(  4-C , 20-C ) :   1.0357 
B(  6-C ,  7-H ) :   0.9402 B(  6-C ,  8-H ) :   0.9370 B(  6-C ,  9-C ) :   1.0637 
B(  9-C , 10-H ) :   0.9549 B(  9-C , 11-H ) :   0.9585 B(  9-C , 12-C ) :   1.0916 
B( 12-C , 13-H ) :   0.9754 B( 12-C , 14-H ) :   0.9658 B( 12-C , 15-H ) :   0.9700 
B( 16-S , 17-C ) :   1.1477 B( 16-S , 20-C ) :   1.1312 B( 17-C , 18-C ) :   1.6370 
B( 17-C , 33-H ) :   0.9619 B( 18-C , 19-C ) :   1.2151 B( 18-C , 21-H ) :   0.9851 
B( 19-C , 20-C ) :   1.6058 B( 19-C , 22-C ) :   1.0496 B( 22-C , 23-H ) :   0.9200 
B( 22-C , 24-H ) :   0.9334 B( 22-C , 25-C ) :   1.0738 B( 25-C , 26-H ) :   0.9566 
B( 25-C , 27-H ) :   0.9534 B( 25-C , 28-C ) :   1.0908 B( 28-C , 29-H ) :   0.9723 
B( 28-C , 30-H ) :   0.9691 B( 28-C , 31-H ) :   0.9743 

-------
TIMINGS
-------

Total SCF time: 0 days 0 hours 0 min 27 sec 

Total time                  ....      27.002 sec
Sum of individual times     ....      26.015 sec  ( 96.3%)

Fock matrix formation       ....      24.214 sec  ( 89.7%)
  XC integration            ....       1.580 sec  (  6.5% of F)
    Basis function eval.    ....       0.208 sec  ( 13.1% of XC)
    Density eval.           ....       0.150 sec  (  9.5% of XC)
    XC-Functional eval.     ....       0.167 sec  ( 10.6% of XC)
    XC-Potential eval.      ....       0.194 sec  ( 12.3% of XC)
Diagonalization             ....       0.155 sec  (  0.6%)
Density matrix formation    ....       0.018 sec  (  0.1%)
Population analysis         ....       0.061 sec  (  0.2%)
Initial guess               ....       0.193 sec  (  0.7%)
Orbital Transformation      ....       0.000 sec  (  0.0%)
Orbital Orthonormalization  ....       0.000 sec  (  0.0%)
DIIS solution               ....       0.171 sec  (  0.6%)
SOSCF solution              ....       0.101 sec  (  0.4%)
Grid generation             ....       1.103 sec  (  4.1%)


-------------------------------------------------------------------------------
                          DFT DISPERSION CORRECTION                            
                                                                               
                              DFTD3 V3.1  Rev 1                                
                              USING zero damping                               
-------------------------------------------------------------------------------
The omegaB97X-D3 functional is recognized. Fit by Chai et al.
Active option DFTDOPT                   ...         3   

molecular C6(AA) [au] = 14206.978444 


            DFT-D V3
 parameters
 s6 scaling factor         :     1.0000 
 rs6 scaling factor        :     1.2810 
 s8 scaling factor         :     1.0000 
 rs8 scaling factor        :     1.0940 
 Damping factor alpha6     :    14.0000 
 Damping factor alpha8     :    16.0000 
 ad hoc parameters k1-k3   :    16.0000     1.3333    -4.0000 

 Edisp/kcal,au: -9.480626656765  -0.015108338658 
 E6   /kcal   :  -4.248473954 
 E8   /kcal   :  -5.232152703 
 % E8         :  55.187836126 

-------------------------   ----------------
Dispersion correction           -0.015108339
-------------------------   ----------------


-------------------------   --------------------
FINAL SINGLE POINT ENERGY     -1339.882777688469
-------------------------   --------------------


                            ***************************************
                            *     ORCA property calculations      *
                            ***************************************

                                    ---------------------
                                    Active property flags
                                    ---------------------
   (+) Dipole Moment


------------------------------------------------------------------------------
                       ORCA ELECTRIC PROPERTIES CALCULATION
------------------------------------------------------------------------------

Dipole Moment Calculation                       ... on
Quadrupole Moment Calculation                   ... off
Polarizability Calculation                      ... off
GBWName                                         ... config_2798.gbw
Electron density file                           ... config_2798.scfp
The origin for moment calculation is the CENTER OF MASS  = (90.400249, 27.683321 153.541764)

-------------
DIPOLE MOMENT
-------------
                                X             Y             Z
Electronic contribution:     -7.45252     -14.41338      -6.06767
Nuclear contribution   :      7.74634      14.57609       6.16835
                        -----------------------------------------
Total Dipole Moment    :      0.29381       0.16271       0.10068
                        -----------------------------------------
Magnitude (a.u.)       :      0.35063
Magnitude (Debye)      :      0.89122



--------------------
Rotational spectrum 
--------------------
 
Rotational constants in cm-1:     0.022274     0.008019     0.007137 
Rotational constants in MHz :   667.762946   240.399337   213.961182 

 Dipole components along the rotational axes: 
x,y,z [a.u.] :     0.051508     0.302466    -0.169705 
x,y,z [Debye]:     0.130922     0.768807    -0.431355 

 

Timings for individual modules:

Sum of individual times         ...       28.305 sec (=   0.472 min)
GTO integral calculation        ...        0.937 sec (=   0.016 min)   3.3 %
SCF iterations                  ...       27.369 sec (=   0.456 min)  96.7 %
                             ****ORCA TERMINATED NORMALLY****
TOTAL RUN TIME: 0 days 0 hours 0 minutes 28 seconds 993 msec
