
                                 *****************
                                 * O   R   C   A *
                                 *****************

           --- An Ab Initio, DFT and Semiempirical electronic structure package ---

                  #######################################################
                  #                        -***-                        #
                  #          Department of theory and spectroscopy      #
                  #               Directorship: Frank Neese             #
                  #        Max Planck Institute fuer Kohlenforschung    #
                  #                Kaiser Wilhelm Platz 1               #
                  #                 D-45470 Muelheim/Ruhr               #
                  #                      Germany                        #
                  #                                                     #
                  #                  All rights reserved                #
                  #                        -***-                        #
                  #######################################################


                         Program Version 4.2.1 -  RELEASE  -


 With contributions from (in alphabetic order):
   Daniel Aravena         : Magnetic Suceptibility
   Michael Atanasov       : Ab Initio Ligand Field Theory (pilot matlab implementation)
   Alexander A. Auer      : GIAO ZORA, VPT2
   Ute Becker             : Parallelization
   Giovanni Bistoni       : ED, misc. LED, open-shell LED, HFLD
   Martin Brehm           : Molecular dynamics
   Dmytro Bykov           : SCF Hessian
   Vijay G. Chilkuri      : MRCI spin determinant printing, contributions to CSF-ICE
   Dipayan Datta          : RHF DLPNO-CCSD density
   Achintya Kumar Dutta   : EOM-CC, STEOM-CC
   Dmitry Ganyushin       : Spin-Orbit,Spin-Spin,Magnetic field MRCI
   Miquel Garcia          : C-PCM Hessian, Gaussian charge scheme
   Yang Guo               : DLPNO-NEVPT2, CIM, IAO-localization
   Andreas Hansen         : Spin unrestricted coupled pair/coupled cluster methods
   Benjamin Helmich-Paris : CASSCF linear response (MC-RPA)
   Lee Huntington         : MR-EOM, pCC
   Robert Izsak           : Overlap fitted RIJCOSX, COSX-SCS-MP3, EOM
   Christian Kollmar      : KDIIS, OOCD, Brueckner-CCSD(T), CCSD density
   Simone Kossmann        : Meta GGA functionals, TD-DFT gradient, OOMP2, MP2 Hessian
   Martin Krupicka        : AUTO-CI
   Lucas Lang             : DCDCAS
   Dagmar Lenk            : GEPOL surface, SMD
   Dimitrios Liakos       : Extrapolation schemes; Compound Job, initial MDCI parallelization
   Dimitrios Manganas     : Further ROCIS development; embedding schemes
   Dimitrios Pantazis     : SARC Basis sets
   Taras Petrenko         : DFT Hessian,TD-DFT gradient, ASA, ECA, R-Raman, ABS, FL, XAS/XES, NRVS
   Peter Pinski           : DLPNO-MP2, DLPNO-MP2 Gradient
   Christoph Reimann      : Effective Core Potentials
   Marius Retegan         : Local ZFS, SOC
   Christoph Riplinger    : Optimizer, TS searches, QM/MM, DLPNO-CCSD(T), (RO)-DLPNO pert. Triples
   Tobias Risthaus        : Range-separated hybrids, TD-DFT gradient, RPA, STAB
   Michael Roemelt        : Original ROCIS implementation
   Masaaki Saitow         : Open-shell DLPNO-CCSD energy and density
   Barbara Sandhoefer     : DKH picture change effects
   Avijit Sen             : IP-ROCIS
   Kantharuban Sivalingam : CASSCF convergence, NEVPT2, FIC-MRCI
   Bernardo de Souza      : ESD, SOC TD-DFT
   Georgi Stoychev        : AutoAux, RI-MP2 NMR
   Willem Van den Heuvel  : Paramagnetic NMR
   Boris Wezisla          : Elementary symmetry handling
   Frank Wennmohs         : Technical directorship


 We gratefully acknowledge several colleagues who have allowed us to
 interface, adapt or use parts of their codes:
   Stefan Grimme, W. Hujo, H. Kruse,             : VdW corrections, initial TS optimization,
                  C. Bannwarth                     DFT functionals, gCP, sTDA/sTD-DF
   Ed Valeev, F. Pavosevic, A. Kumar             : LibInt (2-el integral package), F12 methods
   Garnet Chan, S. Sharma, J. Yang, R. Olivares  : DMRG
   Ulf Ekstrom                                   : XCFun DFT Library
   Mihaly Kallay                                 : mrcc  (arbitrary order and MRCC methods)
   Andreas Klamt, Michael Diedenhofen            : otool_cosmo (COSMO solvation model)
   Jiri Pittner, Ondrej Demel                    : Mk-CCSD
   Frank Weinhold                                : gennbo (NPA and NBO analysis)
   Christopher J. Cramer and Donald G. Truhlar   : smd solvation model
   Lars Goerigk                                  : TD-DFT with DH, B97 family of functionals
   V. Asgeirsson, H. Jonsson                     : NEB implementation
   FAccTs GmbH                                   : IRC, NEB, NEB-TS, Multilevel, MM, QM/MM, CI optimization
   S Lehtola, MJT Oliveira, MAL Marques          : LibXC Library


 Your calculation uses the libint2 library for the computation of 2-el integrals
 For citations please refer to: http://libint.valeyev.net

 Your ORCA version has been built with support for libXC version: 4.2.3
 For citations please refer to: https://tddft.org/programs/libxc/

 This ORCA versions uses:
   CBLAS   interface :  Fast vector & matrix operations
   LAPACKE interface :  Fast linear algebra routines
   SCALAPACK package :  Parallel linear algebra routines


Your calculation utilizes the atom-pairwise dispersion correction
with the zero-damping scheme (D30)
Cite in your paper:
S.Grimme, J.Antony, S.Ehrlich and H.Krieg, J.Chem.Phys., 132, (2010), 154104 
   

XCFun DFT library Copyright 2009-2010 Ulf Ekstrom and contributors.
See http://admol.org/xcfun for more information. This is free soft-
ware; see the source code for copying conditions. There is ABSOLUTELY
NO WARRANTY; not even for MERCHANTABILITY or FITNESS FOR A PARTICULAR
PURPOSE. For details see the documentation. Scientific users of this 
library should cite U. Ekstrom, L. Visscher, R. Bast, A. J. Thorvald-
sen and K. Ruud; J.Chem.Theor.Comp. 2010, DOI: 10.1021/ct100117s
XCFun Version 0.99 
----- Orbital basis set information -----
Your calculation utilizes the basis: def2-SVP
   F. Weigend and R. Ahlrichs, Phys. Chem. Chem. Phys. 7, 3297 (2005).

================================================================================
                                        WARNINGS
                       Please study these warnings very carefully!
================================================================================


INFO   : the flag for use of LIBINT has been found!

================================================================================
                                       INPUT FILE
================================================================================
NAME = config_6009.inp
|  1> ! wB97X-D3 SP def2-SVP
|  2> %pal
|  3> nprocs 16
|  4> end
|  5> 
|  6> * xyz 0 1
|  7> S 	 -22.9792 	 -4.16443 	 95.5566 	 
|  8> C 	 -23.4818 	 -2.57795 	 95.2406 	 
|  9> C 	 -23.0307 	 -2.00067 	 94.1123 	 
| 10> C 	 -22.3183 	 -3.00437 	 93.3411 	 
| 11> C 	 -22.1947 	 -4.20551 	 93.9861 	 
| 12> H 	 -21.9862 	 -2.8336 	 92.3244 	 
| 13> C 	 -23.273 	 -0.604578 	 93.5954 	 
| 14> H 	 -22.7825 	 -0.379334 	 92.605 	 
| 15> H 	 -22.857 	 0.147349 	 94.2432 	 
| 16> C 	 -24.7568 	 -0.190905 	 93.4677 	 
| 17> H 	 -25.2981 	 -0.279627 	 94.4299 	 
| 18> H 	 -24.8411 	 0.842288 	 93.1764 	 
| 19> C 	 -25.7256 	 -0.895732 	 92.5392 	 
| 20> H 	 -26.7576 	 -0.506722 	 92.5332 	 
| 21> H 	 -25.1652 	 -0.834856 	 91.567 	 
| 22> H 	 -25.6583 	 -1.98042 	 92.8421 	 
| 23> S 	 -21.147 	 -6.71085 	 94.545 	 
| 24> C 	 -20.5949 	 -7.7312 	 93.2023 	 
| 25> C 	 -20.881 	 -7.19759 	 92.0033 	 
| 26> C 	 -21.5235 	 -5.92436 	 92.1053 	 
| 27> C 	 -21.7548 	 -5.49145 	 93.4403 	 
| 28> H 	 -20.5833 	 -7.64373 	 91.0855 	 
| 29> C 	 -21.9691 	 -5.11417 	 90.8656 	 
| 30> H 	 -22.6821 	 -4.3425 	 91.1462 	 
| 31> H 	 -22.3553 	 -5.84256 	 90.1426 	 
| 32> C 	 -20.9021 	 -4.42477 	 90.0485 	 
| 33> H 	 -20.0591 	 -5.02577 	 89.8337 	 
| 34> H 	 -20.4842 	 -3.67939 	 90.6846 	 
| 35> C 	 -21.3848 	 -3.63321 	 88.771 	 
| 36> H 	 -21.721 	 -2.61846 	 89.0161 	 
| 37> H 	 -22.1486 	 -4.25127 	 88.2424 	 
| 38> H 	 -20.5842 	 -3.58101 	 88.0386 	 
| 39> H 	 -24.0129 	 -1.98462 	 95.9087 	 
| 40> H 	 -20.0212 	 -8.5927 	 93.2342 	 
| 41> *
| 42> 
| 43>                          ****END OF INPUT****
================================================================================

                       ****************************
                       * Single Point Calculation *
                       ****************************

---------------------------------
CARTESIAN COORDINATES (ANGSTROEM)
---------------------------------
  S    -22.979200   -4.164430   95.556600
  C    -23.481800   -2.577950   95.240600
  C    -23.030700   -2.000670   94.112300
  C    -22.318300   -3.004370   93.341100
  C    -22.194700   -4.205510   93.986100
  H    -21.986200   -2.833600   92.324400
  C    -23.273000   -0.604578   93.595400
  H    -22.782500   -0.379334   92.605000
  H    -22.857000    0.147349   94.243200
  C    -24.756800   -0.190905   93.467700
  H    -25.298100   -0.279627   94.429900
  H    -24.841100    0.842288   93.176400
  C    -25.725600   -0.895732   92.539200
  H    -26.757600   -0.506722   92.533200
  H    -25.165200   -0.834856   91.567000
  H    -25.658300   -1.980420   92.842100
  S    -21.147000   -6.710850   94.545000
  C    -20.594900   -7.731200   93.202300
  C    -20.881000   -7.197590   92.003300
  C    -21.523500   -5.924360   92.105300
  C    -21.754800   -5.491450   93.440300
  H    -20.583300   -7.643730   91.085500
  C    -21.969100   -5.114170   90.865600
  H    -22.682100   -4.342500   91.146200
  H    -22.355300   -5.842560   90.142600
  C    -20.902100   -4.424770   90.048500
  H    -20.059100   -5.025770   89.833700
  H    -20.484200   -3.679390   90.684600
  C    -21.384800   -3.633210   88.771000
  H    -21.721000   -2.618460   89.016100
  H    -22.148600   -4.251270   88.242400
  H    -20.584200   -3.581010   88.038600
  H    -24.012900   -1.984620   95.908700
  H    -20.021200   -8.592700   93.234200

----------------------------
CARTESIAN COORDINATES (A.U.)
----------------------------
  NO LB      ZA    FRAG     MASS         X           Y           Z
   0 S    16.0000    0    32.060  -43.424395   -7.869632  180.575804
   1 C     6.0000    0    12.011  -44.374171   -4.871619  179.978651
   2 C     6.0000    0    12.011  -43.521716   -3.780718  177.846473
   3 C     6.0000    0    12.011  -42.175475   -5.677437  176.389116
   4 C     6.0000    0    12.011  -41.941905   -7.947262  177.607989
   5 H     1.0000    0     1.008  -41.547897   -5.354728  174.467831
   6 C     6.0000    0    12.011  -43.979596   -1.142487  176.869673
   7 H     1.0000    0     1.008  -43.052686   -0.716837  174.998089
   8 H     1.0000    0     1.008  -43.193470    0.278449  178.093838
   9 C     6.0000    0    12.011  -46.783572   -0.360758  176.628355
  10 H     1.0000    0     1.008  -47.806481   -0.528418  178.446650
  11 H     1.0000    0     1.008  -46.942876    1.591694  176.077878
  12 C     6.0000    0    12.011  -48.614339   -1.692688  174.873745
  13 H     1.0000    0     1.008  -50.564536   -0.957566  174.862406
  14 H     1.0000    0     1.008  -47.555336   -1.577649  173.036553
  15 H     1.0000    0     1.008  -48.487160   -3.742451  175.446143
  16 S    16.0000    0    32.060  -39.962039  -12.681669  178.664157
  17 C     6.0000    0    12.011  -38.918721  -14.609851  176.126822
  18 C     6.0000    0    12.011  -39.459371  -13.601474  173.861040
  19 C     6.0000    0    12.011  -40.673520  -11.195418  174.053792
  20 C     6.0000    0    12.011  -41.110614  -10.377337  176.576577
  21 H     1.0000    0     1.008  -38.896800  -14.444556  172.126650
  22 C     6.0000    0    12.011  -41.515582   -9.664381  171.711099
  23 H     1.0000    0     1.008  -42.862957   -8.206136  172.241356
  24 H     1.0000    0     1.008  -42.245395  -11.040838  170.344827
  25 C     6.0000    0    12.011  -39.499245   -8.361604  170.167004
  26 H     1.0000    0     1.008  -37.906205   -9.497329  169.761091
  27 H     1.0000    0     1.008  -38.709528   -6.953039  171.369059
  28 C     6.0000    0    12.011  -40.411415   -6.865772  167.752879
  29 H     1.0000    0     1.008  -41.046741   -4.948172  168.216051
  30 H     1.0000    0     1.008  -41.854788   -8.033736  166.753969
  31 H     1.0000    0     1.008  -38.898501   -6.767128  166.368843
  32 H     1.0000    0     1.008  -45.377805   -3.750388  181.241177
  33 H     1.0000    0     1.008  -37.834585  -16.237850  176.187104

--------------------------------
INTERNAL COORDINATES (ANGSTROEM)
--------------------------------
 S      0   0   0     0.000000000000     0.00000000     0.00000000
 C      1   0   0     1.693924895147     0.00000000     0.00000000
 C      2   1   0     1.345289670814   117.31368084     0.00000000
 C      3   2   1     1.452472681327   108.25530089     7.04769543
 C      4   3   2     1.368955536020   113.60536611   354.95542055
 H      4   3   2     1.083112040788   122.67248761   170.58877237
 C      3   2   1     1.508299629538   129.10540365   181.96573348
 H      7   3   2     1.127926092231   114.57603880   180.77643613
 H      7   3   2     1.076148248769   112.23129909    64.07321841
 C      7   3   2     1.545669783922   115.48349060   305.73773733
 H     10   7   3     1.107567660815   112.08320575    57.03838930
 H     10   7   3     1.076777579284   110.75094764   175.03957784
 C     10   7   3     1.515739684091   122.66554301   297.42581156
 H     13  10   7     1.102900167785   115.93742564   180.21154005
 H     13  10   7     1.123800199046   100.72063353   306.59768779
 H     13  10   7     1.128195797432   104.15114676    54.95636331
 S      5   4   3     2.772503023551   157.21481345   199.95547228
 C     17   5   4     1.774477901384   118.98913419   323.05069139
 C     18  17   5     1.343202829844   112.37913567   353.69526688
 C     19  18  17     1.429798895964   112.69331016     1.69208387
 C     20  19  18     1.422369768415   114.27145234   358.79863927
 H     19  18  17     1.063025413431   122.97789103   176.84048038
 C     20  19  18     1.546552063818   122.60139549   180.74872613
 H     23  20  19     1.087464918469   110.72079077   163.19639141
 H     23  20  19     1.096554345256   106.38037571    38.53474804
 C     23  20  19     1.510434960533   117.98274777   285.78625563
 H     26  23  20     1.057350008275   114.43596324    45.97577493
 H     26  23  20     1.065295716879   105.87001850   294.58693982
 C     26  23  20     1.578471657522   116.78743142   178.64830078
 H     29  26  23     1.096732425207   112.13927059    84.10076080
 H     29  26  23     1.115708995930   108.36046938   317.24606988
 H     29  26  23     1.086321757124   110.14369514   206.18536380
 H      2   1   3     1.039454332282   124.49263123   187.92689285
 H     18  17   5     1.035534427240   128.86140125   166.85157644

---------------------------
INTERNAL COORDINATES (A.U.)
---------------------------
 S      0   0   0     0.000000000000     0.00000000     0.00000000
 C      1   0   0     3.201054143260     0.00000000     0.00000000
 C      2   1   0     2.542229048632   117.31368084     0.00000000
 C      3   2   1     2.744775584710   108.25530089     7.04769543
 C      4   3   2     2.586951052593   113.60536611   354.95542055
 H      4   3   2     2.046785129442   122.67248761   170.58877237
 C      3   2   1     2.850273227721   129.10540365   181.96573348
 H      7   3   2     2.131471413621   114.57603880   180.77643613
 H      7   3   2     2.033625469673   112.23129909    64.07321841
 C      7   3   2     2.920892585090   115.48349060   305.73773733
 H     10   7   3     2.092999553729   112.08320575    57.03838930
 H     10   7   3     2.034814731994   110.75094764   175.03957784
 C     10   7   3     2.864332893249   122.66554301   297.42581156
 H     13  10   7     2.084179270169   115.93742564   180.21154005
 H     13  10   7     2.123674605443   100.72063353   306.59768779
 H     13  10   7     2.131981082588   104.15114676    54.95636331
 S      5   4   3     5.239271419980   157.21481345   199.95547228
 C     17   5   4     3.353277264311   118.98913419   323.05069139
 C     18  17   5     2.538285490713   112.37913567   353.69526688
 C     19  18  17     2.701928339955   112.69331016     1.69208387
 C     20  19  18     2.687889323473   114.27145234   358.79863927
 H     19  18  17     2.008826904783   122.97789103   176.84048038
 C     20  19  18     2.922559852467   122.60139549   180.74872613
 H     23  20  19     2.055010876153   110.72079077   163.19639141
 H     23  20  19     2.072187403495   106.38037571    38.53474804
 C     23  20  19     2.854308418507   117.98274777   285.78625563
 H     26  23  20     1.998101943340   114.43596324    45.97577493
 H     26  23  20     2.013117156540   105.87001850   294.58693982
 C     26  23  20     2.982879142873   116.78743142   178.64830078
 H     29  26  23     2.072523925832   112.13927059    84.10076080
 H     29  26  23     2.108384447461   108.36046938   317.24606988
 H     29  26  23     2.052850614284   110.14369514   206.18536380
 H      2   1   3     1.964284016731   124.49263123   187.92689285
 H     18  17   5     1.956876469731   128.86140125   166.85157644

---------------------
BASIS SET INFORMATION
---------------------
There are 3 groups of distinct atoms

 Group   1 Type S   : 10s7p1d contracted to 4s3p1d pattern {5311/511/1}
 Group   2 Type C   : 7s4p1d contracted to 3s2p1d pattern {511/31/1}
 Group   3 Type H   : 4s1p contracted to 2s1p pattern {31/1}

Atom   0S    basis set group =>   1
Atom   1C    basis set group =>   2
Atom   2C    basis set group =>   2
Atom   3C    basis set group =>   2
Atom   4C    basis set group =>   2
Atom   5H    basis set group =>   3
Atom   6C    basis set group =>   2
Atom   7H    basis set group =>   3
Atom   8H    basis set group =>   3
Atom   9C    basis set group =>   2
Atom  10H    basis set group =>   3
Atom  11H    basis set group =>   3
Atom  12C    basis set group =>   2
Atom  13H    basis set group =>   3
Atom  14H    basis set group =>   3
Atom  15H    basis set group =>   3
Atom  16S    basis set group =>   1
Atom  17C    basis set group =>   2
Atom  18C    basis set group =>   2
Atom  19C    basis set group =>   2
Atom  20C    basis set group =>   2
Atom  21H    basis set group =>   3
Atom  22C    basis set group =>   2
Atom  23H    basis set group =>   3
Atom  24H    basis set group =>   3
Atom  25C    basis set group =>   2
Atom  26H    basis set group =>   3
Atom  27H    basis set group =>   3
Atom  28C    basis set group =>   2
Atom  29H    basis set group =>   3
Atom  30H    basis set group =>   3
Atom  31H    basis set group =>   3
Atom  32H    basis set group =>   3
Atom  33H    basis set group =>   3


           ************************************************************
           *        Program running with 16 parallel MPI-processes    *
           *              working on a common directory               *
           ************************************************************
------------------------------------------------------------------------------
                           ORCA GTO INTEGRAL CALCULATION
------------------------------------------------------------------------------

                         BASIS SET STATISTICS AND STARTUP INFO

 # of primitive gaussian shells          ...  294
 # of primitive gaussian functions       ...  534
 # of contracted shells                  ...  154
 # of contracted basis functions         ...  322
 Highest angular momentum                ...    2
 Maximum contraction depth               ...    5
 Integral package used                   ... LIBINT
 Integral threshhold            Thresh   ...  1.000e-10
 Primitive cut-off              TCut     ...  1.000e-11


------------------------------ INTEGRAL EVALUATION ----------------------------


 * One electron integrals 
 Pre-screening matrix                    ... done
 Shell pair data                         ... done (   0.003 sec)



           ************************************************************
           *        Program running with 16 parallel MPI-processes    *
           *              working on a common directory               *
           ************************************************************
-------------------------------------------------------------------------------
                                 ORCA SCF
-------------------------------------------------------------------------------

------------
SCF SETTINGS
------------
Hamiltonian:
 Density Functional     Method          .... DFT(GTOs)
 Exchange Functional    Exchange        .... WB97X-D3
 Correlation Functional Correlation     .... WB97X-D3
 Gradients option       PostSCFGGA      .... off
 Hybrid DFT is turned on
   Fraction HF Exchange ScalHFX         ....  0.195728
   Scaling of DF-GGA-X  ScalDFX         ....  0.000000
   Scaling of DF-GGA-C  ScalDFC         ....  1.000000
   Scaling of DF-LDA-C  ScalLDAC        ....  1.000000
   Perturbative correction              ....  0.000000
   Density functional embedding theory  .... OFF
 Long-range corrected/Screened/Range-Separated Hybrid DFT is turned on
   Amount of maximum screened exact exchange              ....  0.804272
   Range separation parameter mu (erf(mu*r12)/r12)        ....  0.250000


General Settings:
 Integral files         IntName         .... config_6009
 Hartree-Fock type      HFTyp           .... RHF
 Total Charge           Charge          ....    0
 Multiplicity           Mult            ....    1
 Number of Electrons    NEL             ....  134
 Basis Dimension        Dim             ....  322
 Nuclear Repulsion      ENuc            ....   1285.8430861772 Eh

Convergence Acceleration:
 DIIS                   CNVDIIS         .... on
   Start iteration      DIISMaxIt       ....    12
   Startup error        DIISStart       ....  0.200000
   # of expansion vecs  DIISMaxEq       ....     5
   Bias factor          DIISBfac        ....   1.050
   Max. coefficient     DIISMaxC        ....  10.000
 Newton-Raphson         CNVNR           .... off
 SOSCF                  CNVSOSCF        .... on
   Start iteration      SOSCFMaxIt      ....   150
   Startup grad/error   SOSCFStart      ....  0.003300
 Level Shifting         CNVShift        .... on
   Level shift para.    LevelShift      ....    0.2500
   Turn off err/grad.   ShiftErr        ....    0.0010
 Zerner damping         CNVZerner       .... off
 Static damping         CNVDamp         .... on
   Fraction old density DampFac         ....    0.7000
   Max. Damping (<1)    DampMax         ....    0.9800
   Min. Damping (>=0)   DampMin         ....    0.0000
   Turn off err/grad.   DampErr         ....    0.1000
 Fernandez-Rico         CNVRico         .... off

SCF Procedure:
 Maximum # iterations   MaxIter         ....   125
 SCF integral mode      SCFMode         .... Direct
   Integral package                     .... LIBINT
 Reset frequency        DirectResetFreq ....    20
 Integral Threshold     Thresh          ....  1.000e-10 Eh
 Primitive CutOff       TCut            ....  1.000e-11 Eh

Convergence Tolerance:
 Convergence Check Mode ConvCheckMode   .... Total+1el-Energy
 Convergence forced     ConvForced      .... 0
 Energy Change          TolE            ....  1.000e-06 Eh
 1-El. energy change                    ....  1.000e-03 Eh
 Orbital Gradient       TolG            ....  5.000e-05
 Orbital Rotation angle TolX            ....  5.000e-05
 DIIS Error             TolErr          ....  1.000e-06


Diagonalization of the overlap matrix:
Smallest eigenvalue                        ... 5.027e-04
Time for diagonalization                   ...    0.015 sec
Threshold for overlap eigenvalues          ... 1.000e-08
Number of eigenvalues below threshold      ... 0
Time for construction of square roots      ...    0.021 sec
Total time needed                          ...    0.037 sec

-------------------
DFT GRID GENERATION
-------------------

General Integration Accuracy     IntAcc      ...  4.340
Radial Grid Type                 RadialGrid  ... Gauss-Chebyshev
Angular Grid (max. acc.)         AngularGrid ... Lebedev-110
Angular grid pruning method      GridPruning ... 3 (G Style)
Weight generation scheme         WeightScheme... Becke
Basis function cutoff            BFCut       ...    1.0000e-10
Integration weight cutoff        WCut        ...    1.0000e-14
Grids for H and He will be reduced by one unit

# of grid points (after initial pruning)     ...  41088 (   0.0 sec)
# of grid points (after weights+screening)   ...  36917 (   0.0 sec)
nearest neighbour list constructed           ...    0.0 sec
Grid point re-assignment to atoms done       ...    0.0 sec
Grid point division into batches done        ...    0.0 sec
Reduced shell lists constructed in    0.1 sec

Total number of grid points                  ...    36917
Total number of batches                      ...      594
Average number of points per batch           ...       62
Average number of grid points per atom       ...     1086
Average number of shells per batch           ...    75.44 (48.98%)
Average number of basis functions per batch  ...   149.38 (46.39%)
Average number of large shells per batch     ...    47.46 (62.92%)
Average number of large basis fcns per batch ...    98.38 (65.86%)
Maximum spatial batch extension              ...  15.75, 10.92, 19.68 au
Average spatial batch extension              ...   0.26,  0.20,  0.23 au

Time for grid setup =    0.167 sec

------------------------------
INITIAL GUESS: MODEL POTENTIAL
------------------------------
Loading Hartree-Fock densities                     ... done
Calculating cut-offs                               ... done
Setting up the integral package                    ... done
Initializing the effective Hamiltonian             ... done
Starting the Coulomb interaction                   ... done (   0.0 sec)
Reading the grid                                   ... done
Mapping shells                                     ... done
Starting the XC term evaluation                    ... done (   0.0 sec)
  promolecular density results
     # of electrons  =    133.997489363
     EX              =   -126.746126430
     EC              =     -4.624409432
     EX+EC           =   -131.370535863
Transforming the Hamiltonian                       ... done (   0.0 sec)
Diagonalizing the Hamiltonian                      ... done (   0.0 sec)
Back transforming the eigenvectors                 ... done (   0.0 sec)
Now organizing SCF variables                       ... done
                      ------------------
                      INITIAL GUESS DONE (   0.4 sec)
                      ------------------
--------------
SCF ITERATIONS
--------------
ITER       Energy         Delta-E        Max-DP      RMS-DP      [F,P]     Damp
               ***  Starting incremental Fock matrix formation  ***
  0  -1339.4054010830   0.000000000000 0.06367202  0.00161195  0.1462772 0.7000
  1  -1339.5979757770  -0.192574693965 0.04286521  0.00117133  0.0889479 0.7000
                               ***Turning on DIIS***
  2  -1339.6906000352  -0.092624258236 0.08174219  0.00219668  0.0464235 0.0000
  3  -1339.8306223835  -0.140022348277 0.04289046  0.00099262  0.0457178 0.0000
  4  -1339.8609452810  -0.030322897478 0.00780277  0.00020874  0.0076723 0.0000
                      *** Initiating the SOSCF procedure ***
                           *** Shutting down DIIS ***
                      *** Re-Reading the Fockian *** 
                      *** Removing any level shift *** 
ITER      Energy       Delta-E        Grad      Rot      Max-DP    RMS-DP
  5  -1339.86190171  -0.0009564282  0.001714  0.001714  0.003118  0.000098
               *** Restarting incremental Fock matrix formation ***
  6  -1339.86210866  -0.0002069501  0.001477  0.004085  0.002370  0.000067
  7  -1339.86217921  -0.0000705473  0.000899  0.005430  0.002758  0.000065
  8  -1339.86219781  -0.0000186025  0.000539  0.001015  0.000844  0.000021
  9  -1339.86220363  -0.0000058204  0.000119  0.000444  0.000411  0.000009
 10  -1339.86220406  -0.0000004258  0.000090  0.000281  0.000164  0.000004
                 **** Energy Check signals convergence ****
              ***Rediagonalizing the Fockian in SOSCF/NRSCF***

               *****************************************************
               *                     SUCCESS                       *
               *           SCF CONVERGED AFTER  11 CYCLES          *
               *****************************************************

Setting up the final grid:

General Integration Accuracy     IntAcc      ...  4.670
Radial Grid Type                 RadialGrid  ... Gauss-Chebyshev
Angular Grid (max. acc.)         AngularGrid ... Lebedev-302
Angular grid pruning method      GridPruning ... 3 (G Style)
Weight generation scheme         WeightScheme... Becke
Basis function cutoff            BFCut       ...    1.0000e-10
Integration weight cutoff        WCut        ...    1.0000e-14
Grids for H and He will be reduced by one unit

# of grid points (after initial pruning)     ... 161752 (   0.0 sec)
# of grid points (after weights+screening)   ... 142571 (   0.1 sec)
nearest neighbour list constructed           ...    0.0 sec
Grid point re-assignment to atoms done       ...    0.0 sec
Grid point division into batches done        ...    0.5 sec
Reduced shell lists constructed in    0.6 sec

Total number of grid points                  ...   142571
Total number of batches                      ...     2244
Average number of points per batch           ...       63
Average number of grid points per atom       ...     4193
Average number of shells per batch           ...    69.29 (44.99%)
Average number of basis functions per batch  ...   137.43 (42.68%)
Average number of large shells per batch     ...    42.80 (61.76%)
Average number of large basis fcns per batch ...    88.40 (64.32%)
Maximum spatial batch extension              ...  13.18, 11.51, 13.21 au
Average spatial batch extension              ...   0.14,  0.13,  0.14 au

Final grid set up in    1.1 sec
Final integration                            ... done (   0.4 sec)
Change in XC energy                          ...     0.007765967
Integrated number of electrons               ...   134.000216394
Previous integrated no of electrons          ...   133.999630551

----------------
TOTAL SCF ENERGY
----------------

Total Energy       :        -1339.85443836 Eh          -36459.29282 eV

Components:
Nuclear Repulsion  :         1285.84308618 Eh           34989.56921 eV
Electronic Energy  :        -2625.69752454 Eh          -71448.86203 eV
One Electron Energy:        -4388.00037270 Eh         -119403.56050 eV
Two Electron Energy:         1762.30284816 Eh           47954.69847 eV

Virial components:
Potential Energy   :        -2671.56518533 Eh          -72696.98454 eV
Kinetic Energy     :         1331.71074697 Eh           36237.69171 eV
Virial Ratio       :            2.00611521


DFT components:
N(Alpha)           :       67.000108197243 electrons
N(Beta)            :       67.000108197243 electrons
N(Total)           :      134.000216394486 electrons
E(XC)              :      -94.292477549599 Eh       
DFET-embed. en.    :        0.000000000000 Eh       

---------------
SCF CONVERGENCE
---------------

  Last Energy change         ...   -2.7252e-07  Tolerance :   1.0000e-06
  Last MAX-Density change    ...    3.2932e-05  Tolerance :   1.0000e-05
  Last RMS-Density change    ...    7.1641e-07  Tolerance :   1.0000e-06
  Last Orbital Gradient      ...    7.5317e-06  Tolerance :   5.0000e-05
  Last Orbital Rotation      ...    2.0965e-05  Tolerance :   5.0000e-05

             **** THE GBW FILE WAS UPDATED (config_6009.gbw) ****
             **** DENSITY FILE WAS UPDATED (config_6009.scfp) ****
             **** ENERGY FILE WAS UPDATED (config_6009.en.tmp) ****
             **** THE GBW FILE WAS UPDATED (config_6009.gbw) ****
             **** DENSITY FILE WAS UPDATED (config_6009.scfp) ****
----------------
ORBITAL ENERGIES
----------------

  NO   OCC          E(Eh)            E(eV) 
   0   2.0000     -88.969084     -2420.9719 
   1   2.0000     -88.966821     -2420.9103 
   2   2.0000     -10.332009      -281.1483 
   3   2.0000     -10.331480      -281.1339 
   4   2.0000     -10.312362      -280.6136 
   5   2.0000     -10.307583      -280.4836 
   6   2.0000     -10.304994      -280.4131 
   7   2.0000     -10.302690      -280.3504 
   8   2.0000     -10.301020      -280.3050 
   9   2.0000     -10.296165      -280.1729 
  10   2.0000     -10.291222      -280.0384 
  11   2.0000     -10.290762      -280.0259 
  12   2.0000     -10.286316      -279.9049 
  13   2.0000     -10.285079      -279.8712 
  14   2.0000     -10.281818      -279.7825 
  15   2.0000     -10.279774      -279.7269 
  16   2.0000      -8.085051      -220.0054 
  17   2.0000      -8.081136      -219.8989 
  18   2.0000      -6.043560      -164.4536 
  19   2.0000      -6.039805      -164.3515 
  20   2.0000      -6.039550      -164.3445 
  21   2.0000      -6.035739      -164.2408 
  22   2.0000      -6.035574      -164.2363 
  23   2.0000      -6.031729      -164.1317 
  24   2.0000      -1.012994       -27.5650 
  25   2.0000      -0.987954       -26.8836 
  26   2.0000      -0.915004       -24.8985 
  27   2.0000      -0.908069       -24.7098 
  28   2.0000      -0.875989       -23.8369 
  29   2.0000      -0.855839       -23.2886 
  30   2.0000      -0.844759       -22.9871 
  31   2.0000      -0.820818       -22.3356 
  32   2.0000      -0.787881       -21.4393 
  33   2.0000      -0.774429       -21.0733 
  34   2.0000      -0.710385       -19.3306 
  35   2.0000      -0.697908       -18.9910 
  36   2.0000      -0.690776       -18.7970 
  37   2.0000      -0.667903       -18.1746 
  38   2.0000      -0.641554       -17.4576 
  39   2.0000      -0.622095       -16.9281 
  40   2.0000      -0.597551       -16.2602 
  41   2.0000      -0.582292       -15.8450 
  42   2.0000      -0.571674       -15.5560 
  43   2.0000      -0.556235       -15.1359 
  44   2.0000      -0.545918       -14.8552 
  45   2.0000      -0.521272       -14.1845 
  46   2.0000      -0.512574       -13.9479 
  47   2.0000      -0.509558       -13.8658 
  48   2.0000      -0.508443       -13.8354 
  49   2.0000      -0.503611       -13.7040 
  50   2.0000      -0.493389       -13.4258 
  51   2.0000      -0.483245       -13.1498 
  52   2.0000      -0.474409       -12.9093 
  53   2.0000      -0.465818       -12.6755 
  54   2.0000      -0.462217       -12.5776 
  55   2.0000      -0.457124       -12.4390 
  56   2.0000      -0.451018       -12.2728 
  57   2.0000      -0.443995       -12.0817 
  58   2.0000      -0.430154       -11.7051 
  59   2.0000      -0.424655       -11.5554 
  60   2.0000      -0.416416       -11.3312 
  61   2.0000      -0.410164       -11.1611 
  62   2.0000      -0.403341       -10.9755 
  63   2.0000      -0.366060        -9.9610 
  64   2.0000      -0.338252        -9.2043 
  65   2.0000      -0.328965        -8.9516 
  66   2.0000      -0.285040        -7.7563 
  67   0.0000       0.023482         0.6390 
  68   0.0000       0.078882         2.1465 
  69   0.0000       0.098822         2.6891 
  70   0.0000       0.119465         3.2508 
  71   0.0000       0.124085         3.3765 
  72   0.0000       0.139576         3.7981 
  73   0.0000       0.153981         4.1900 
  74   0.0000       0.158804         4.3213 
  75   0.0000       0.163542         4.4502 
  76   0.0000       0.174316         4.7434 
  77   0.0000       0.184360         5.0167 
  78   0.0000       0.186896         5.0857 
  79   0.0000       0.190927         5.1954 
  80   0.0000       0.201818         5.4918 
  81   0.0000       0.204638         5.5685 
  82   0.0000       0.207170         5.6374 
  83   0.0000       0.215436         5.8623 
  84   0.0000       0.229314         6.2400 
  85   0.0000       0.231556         6.3010 
  86   0.0000       0.235014         6.3951 
  87   0.0000       0.241830         6.5805 
  88   0.0000       0.249660         6.7936 
  89   0.0000       0.253700         6.9035 
  90   0.0000       0.256856         6.9894 
  91   0.0000       0.271053         7.3757 
  92   0.0000       0.281025         7.6471 
  93   0.0000       0.290956         7.9173 
  94   0.0000       0.303639         8.2624 
  95   0.0000       0.306726         8.3465 
  96   0.0000       0.328404         8.9363 
  97   0.0000       0.343604         9.3499 
  98   0.0000       0.351700         9.5702 
  99   0.0000       0.368823        10.0362 
 100   0.0000       0.378910        10.3107 
 101   0.0000       0.400039        10.8856 
 102   0.0000       0.412286        11.2189 
 103   0.0000       0.421322        11.4648 
 104   0.0000       0.425422        11.5763 
 105   0.0000       0.441554        12.0153 
 106   0.0000       0.465160        12.6577 
 107   0.0000       0.479306        13.0426 
 108   0.0000       0.483236        13.1495 
 109   0.0000       0.496876        13.5207 
 110   0.0000       0.500010        13.6060 
 111   0.0000       0.511017        13.9055 
 112   0.0000       0.520564        14.1653 
 113   0.0000       0.531295        14.4573 
 114   0.0000       0.532518        14.4906 
 115   0.0000       0.536660        14.6033 
 116   0.0000       0.543196        14.7811 
 117   0.0000       0.546531        14.8719 
 118   0.0000       0.565269        15.3818 
 119   0.0000       0.585713        15.9381 
 120   0.0000       0.589883        16.0515 
 121   0.0000       0.593310        16.1448 
 122   0.0000       0.596363        16.2279 
 123   0.0000       0.597407        16.2563 
 124   0.0000       0.613020        16.6811 
 125   0.0000       0.614471        16.7206 
 126   0.0000       0.628759        17.1094 
 127   0.0000       0.649169        17.6648 
 128   0.0000       0.659557        17.9474 
 129   0.0000       0.673153        18.3174 
 130   0.0000       0.678947        18.4751 
 131   0.0000       0.683035        18.5863 
 132   0.0000       0.687572        18.7098 
 133   0.0000       0.700638        19.0653 
 134   0.0000       0.704941        19.1824 
 135   0.0000       0.711406        19.3583 
 136   0.0000       0.718373        19.5479 
 137   0.0000       0.721568        19.6349 
 138   0.0000       0.734549        19.9881 
 139   0.0000       0.741898        20.1881 
 140   0.0000       0.744414        20.2565 
 141   0.0000       0.753264        20.4974 
 142   0.0000       0.754337        20.5266 
 143   0.0000       0.756510        20.5857 
 144   0.0000       0.763007        20.7625 
 145   0.0000       0.764286        20.7973 
 146   0.0000       0.767409        20.8823 
 147   0.0000       0.776224        21.1221 
 148   0.0000       0.781698        21.2711 
 149   0.0000       0.782702        21.2984 
 150   0.0000       0.787005        21.4155 
 151   0.0000       0.789472        21.4826 
 152   0.0000       0.794967        21.6322 
 153   0.0000       0.797315        21.6960 
 154   0.0000       0.802492        21.8369 
 155   0.0000       0.805360        21.9150 
 156   0.0000       0.807720        21.9792 
 157   0.0000       0.817495        22.2452 
 158   0.0000       0.820446        22.3255 
 159   0.0000       0.823935        22.4204 
 160   0.0000       0.826694        22.4955 
 161   0.0000       0.842239        22.9185 
 162   0.0000       0.843875        22.9630 
 163   0.0000       0.849632        23.1197 
 164   0.0000       0.849888        23.1266 
 165   0.0000       0.861027        23.4297 
 166   0.0000       0.875366        23.8199 
 167   0.0000       0.882031        24.0013 
 168   0.0000       0.900103        24.4931 
 169   0.0000       0.903899        24.5963 
 170   0.0000       0.916358        24.9354 
 171   0.0000       0.926450        25.2100 
 172   0.0000       0.938344        25.5336 
 173   0.0000       0.949456        25.8360 
 174   0.0000       0.962649        26.1950 
 175   0.0000       0.971556        26.4374 
 176   0.0000       0.986714        26.8499 
 177   0.0000       1.006278        27.3822 
 178   0.0000       1.013959        27.5912 
 179   0.0000       1.035303        28.1720 
 180   0.0000       1.049045        28.5460 
 181   0.0000       1.074860        29.2484 
 182   0.0000       1.108761        30.1709 
 183   0.0000       1.126623        30.6570 
 184   0.0000       1.127598        30.6835 
 185   0.0000       1.148206        31.2443 
 186   0.0000       1.163450        31.6591 
 187   0.0000       1.165786        31.7227 
 188   0.0000       1.174542        31.9609 
 189   0.0000       1.201097        32.6835 
 190   0.0000       1.222460        33.2648 
 191   0.0000       1.239817        33.7371 
 192   0.0000       1.256808        34.1995 
 193   0.0000       1.279387        34.8139 
 194   0.0000       1.306579        35.5538 
 195   0.0000       1.317372        35.8475 
 196   0.0000       1.339269        36.4434 
 197   0.0000       1.342607        36.5342 
 198   0.0000       1.349805        36.7301 
 199   0.0000       1.352721        36.8094 
 200   0.0000       1.398733        38.0615 
 201   0.0000       1.418140        38.5896 
 202   0.0000       1.425726        38.7960 
 203   0.0000       1.435625        39.0653 
 204   0.0000       1.451437        39.4956 
 205   0.0000       1.472831        40.0778 
 206   0.0000       1.497792        40.7570 
 207   0.0000       1.504681        40.9445 
 208   0.0000       1.533486        41.7283 
 209   0.0000       1.535522        41.7837 
 210   0.0000       1.554401        42.2974 
 211   0.0000       1.578441        42.9516 
 212   0.0000       1.604527        43.6614 
 213   0.0000       1.612144        43.8687 
 214   0.0000       1.629763        44.3481 
 215   0.0000       1.648352        44.8539 
 216   0.0000       1.665093        45.3095 
 217   0.0000       1.696033        46.1514 
 218   0.0000       1.731814        47.1251 
 219   0.0000       1.762620        47.9633 
 220   0.0000       1.781735        48.4835 
 221   0.0000       1.790362        48.7182 
 222   0.0000       1.794512        48.8312 
 223   0.0000       1.819697        49.5165 
 224   0.0000       1.822478        49.5922 
 225   0.0000       1.833390        49.8891 
 226   0.0000       1.843450        50.1628 
 227   0.0000       1.851939        50.3938 
 228   0.0000       1.858413        50.5700 
 229   0.0000       1.864931        50.7474 
 230   0.0000       1.875670        51.0396 
 231   0.0000       1.879269        51.1375 
 232   0.0000       1.888038        51.3761 
 233   0.0000       1.893961        51.5373 
 234   0.0000       1.895703        51.5847 
 235   0.0000       1.900434        51.7134 
 236   0.0000       1.911239        52.0075 
 237   0.0000       1.913699        52.0744 
 238   0.0000       1.925317        52.3906 
 239   0.0000       1.933811        52.6217 
 240   0.0000       1.946899        52.9778 
 241   0.0000       1.961679        53.3800 
 242   0.0000       1.970317        53.6151 
 243   0.0000       1.975004        53.7426 
 244   0.0000       1.983404        53.9712 
 245   0.0000       1.994756        54.2801 
 246   0.0000       2.007489        54.6265 
 247   0.0000       2.026123        55.1336 
 248   0.0000       2.029618        55.2287 
 249   0.0000       2.041646        55.5560 
 250   0.0000       2.046972        55.7010 
 251   0.0000       2.059728        56.0481 
 252   0.0000       2.065676        56.2099 
 253   0.0000       2.073872        56.4329 
 254   0.0000       2.090115        56.8749 
 255   0.0000       2.102453        57.2107 
 256   0.0000       2.125957        57.8502 
 257   0.0000       2.140109        58.2353 
 258   0.0000       2.142875        58.3106 
 259   0.0000       2.167110        58.9700 
 260   0.0000       2.176476        59.2249 
 261   0.0000       2.185670        59.4751 
 262   0.0000       2.212270        60.1989 
 263   0.0000       2.214495        60.2595 
 264   0.0000       2.238408        60.9102 
 265   0.0000       2.250075        61.2277 
 266   0.0000       2.263318        61.5880 
 267   0.0000       2.278877        62.0114 
 268   0.0000       2.285136        62.1817 
 269   0.0000       2.286086        62.2076 
 270   0.0000       2.307307        62.7850 
 271   0.0000       2.336733        63.5857 
 272   0.0000       2.360337        64.2280 
 273   0.0000       2.397428        65.2373 
 274   0.0000       2.410005        65.5796 
 275   0.0000       2.421190        65.8839 
 276   0.0000       2.439772        66.3896 
 277   0.0000       2.442042        66.4513 
 278   0.0000       2.452972        66.7488 
 279   0.0000       2.469993        67.2119 
 280   0.0000       2.478646        67.4474 
 281   0.0000       2.492837        67.8335 
 282   0.0000       2.498632        67.9912 
 283   0.0000       2.525813        68.7309 
 284   0.0000       2.532394        68.9099 
 285   0.0000       2.550520        69.4032 
 286   0.0000       2.570103        69.9361 
 287   0.0000       2.608933        70.9927 
 288   0.0000       2.621470        71.3338 
 289   0.0000       2.627211        71.4900 
 290   0.0000       2.668740        72.6201 
 291   0.0000       2.686150        73.0939 
 292   0.0000       2.692150        73.2571 
 293   0.0000       2.710227        73.7490 
 294   0.0000       2.732931        74.3668 
 295   0.0000       2.758406        75.0601 
 296   0.0000       2.759965        75.1025 
 297   0.0000       2.771750        75.4232 
 298   0.0000       2.801184        76.2241 
 299   0.0000       2.823027        76.8185 
 300   0.0000       2.848465        77.5107 
 301   0.0000       2.875489        78.2460 
 302   0.0000       2.889159        78.6180 
 303   0.0000       2.950598        80.2899 
 304   0.0000       2.967093        80.7387 
 305   0.0000       2.986751        81.2736 
 306   0.0000       2.992479        81.4295 
 307   0.0000       3.013044        81.9891 
 308   0.0000       3.018207        82.1296 
 309   0.0000       3.042713        82.7964 
 310   0.0000       3.060790        83.2883 
 311   0.0000       3.072424        83.6049 
 312   0.0000       3.098797        84.3226 
 313   0.0000       3.111888        84.6788 
 314   0.0000       3.121035        84.9277 
 315   0.0000       3.152083        85.7725 
 316   0.0000       3.184821        86.6634 
 317   0.0000       3.202085        87.1332 
 318   0.0000       3.260679        88.7276 
 319   0.0000       3.277520        89.1859 
 320   0.0000       3.408672        92.7547 
 321   0.0000       3.464619        94.2771 

                    ********************************
                    * MULLIKEN POPULATION ANALYSIS *
                    ********************************

-----------------------
MULLIKEN ATOMIC CHARGES
-----------------------
   0 S :    0.119411
   1 C :   -0.085235
   2 C :   -0.072531
   3 C :   -0.031521
   4 C :   -0.080956
   5 H :   -0.002654
   6 C :    0.096240
   7 H :    0.028974
   8 H :    0.036292
   9 C :   -0.122657
  10 H :    0.022061
  11 H :    0.023013
  12 C :   -0.070788
  13 H :    0.058105
  14 H :    0.021828
  15 H :    0.043784
  16 S :    0.086536
  17 C :   -0.043317
  18 C :   -0.008178
  19 C :   -0.072613
  20 C :   -0.110384
  21 H :    0.006294
  22 C :    0.056112
  23 H :    0.030272
  24 H :    0.021074
  25 C :   -0.060972
  26 H :    0.011483
  27 H :    0.007963
  28 C :   -0.055538
  29 H :    0.043210
  30 H :    0.031840
  31 H :    0.032293
  32 H :    0.013126
  33 H :    0.027433
Sum of atomic charges:   -0.0000000

--------------------------------
MULLIKEN REDUCED ORBITAL CHARGES
--------------------------------
  0 S s       :     5.836256  s :     5.836256
      pz      :     3.287966  p :     9.931885
      px      :     3.448792
      py      :     3.195128
      dz2     :     0.029565  d :     0.112448
      dxz     :     0.019680
      dyz     :     0.017668
      dx2y2   :     0.027465
      dxy     :     0.018070
  1 C s       :     3.129680  s :     3.129680
      pz      :     1.024680  p :     2.916922
      px      :     1.038963
      py      :     0.853279
      dz2     :     0.008447  d :     0.038633
      dxz     :     0.006596
      dyz     :     0.009527
      dx2y2   :     0.006233
      dxy     :     0.007830
  2 C s       :     3.062249  s :     3.062249
      pz      :     0.998237  p :     2.965920
      px      :     1.003273
      py      :     0.964410
      dz2     :     0.009743  d :     0.044362
      dxz     :     0.006270
      dyz     :     0.012820
      dx2y2   :     0.007390
      dxy     :     0.008139
  3 C s       :     3.222450  s :     3.222450
      pz      :     0.851292  p :     2.774894
      px      :     0.991656
      py      :     0.931946
      dz2     :     0.007233  d :     0.034177
      dxz     :     0.004481
      dyz     :     0.009184
      dx2y2   :     0.006342
      dxy     :     0.006937
  4 C s       :     3.039615  s :     3.039615
      pz      :     0.963236  p :     2.996290
      px      :     1.052381
      py      :     0.980673
      dz2     :     0.010763  d :     0.045051
      dxz     :     0.007651
      dyz     :     0.008991
      dx2y2   :     0.008682
      dxy     :     0.008964
  5 H s       :     0.977875  s :     0.977875
      pz      :     0.014759  p :     0.024779
      px      :     0.006104
      py      :     0.003917
  6 C s       :     2.960266  s :     2.960266
      pz      :     0.980933  p :     2.908874
      px      :     0.978327
      py      :     0.949614
      dz2     :     0.004909  d :     0.034620
      dxz     :     0.006454
      dyz     :     0.007469
      dx2y2   :     0.008515
      dxy     :     0.007272
  7 H s       :     0.949575  s :     0.949575
      pz      :     0.011996  p :     0.021452
      px      :     0.005574
      py      :     0.003881
  8 H s       :     0.939721  s :     0.939721
      pz      :     0.008641  p :     0.023987
      px      :     0.006480
      py      :     0.008866
  9 C s       :     3.053771  s :     3.053771
      pz      :     1.040316  p :     3.029999
      px      :     0.963263
      py      :     1.026420
      dz2     :     0.008402  d :     0.038886
      dxz     :     0.010271
      dyz     :     0.003546
      dx2y2   :     0.011019
      dxy     :     0.005648
 10 H s       :     0.955670  s :     0.955670
      pz      :     0.011547  p :     0.022269
      px      :     0.005927
      py      :     0.004795
 11 H s       :     0.953742  s :     0.953742
      pz      :     0.005792  p :     0.023245
      px      :     0.003971
      py      :     0.013483
 12 C s       :     3.053879  s :     3.053879
      pz      :     1.007471  p :     2.988342
      px      :     0.957629
      py      :     1.023241
      dz2     :     0.007412  d :     0.028567
      dxz     :     0.006213
      dyz     :     0.003099
      dx2y2   :     0.007666
      dxy     :     0.004177
 13 H s       :     0.919887  s :     0.919887
      pz      :     0.003993  p :     0.022008
      px      :     0.012747
      py      :     0.005268
 14 H s       :     0.955544  s :     0.955544
      pz      :     0.011466  p :     0.022628
      px      :     0.006328
      py      :     0.004834
 15 H s       :     0.933662  s :     0.933662
      pz      :     0.005326  p :     0.022554
      px      :     0.004133
      py      :     0.013094
 16 S s       :     5.846033  s :     5.846033
      pz      :     3.316077  p :     9.964594
      px      :     3.534072
      py      :     3.114445
      dz2     :     0.013389  d :     0.102838
      dxz     :     0.017458
      dyz     :     0.038803
      dx2y2   :     0.017835
      dxy     :     0.015352
 17 C s       :     3.112102  s :     3.112102
      pz      :     0.913139  p :     2.894938
      px      :     1.030212
      py      :     0.951587
      dz2     :     0.009016  d :     0.036277
      dxz     :     0.008832
      dyz     :     0.010934
      dx2y2   :     0.002892
      dxy     :     0.004603
 18 C s       :     3.166484  s :     3.166484
      pz      :     0.841702  p :     2.805319
      px      :     0.996717
      py      :     0.966900
      dz2     :     0.009094  d :     0.036376
      dxz     :     0.006589
      dyz     :     0.009619
      dx2y2   :     0.005820
      dxy     :     0.005254
 19 C s       :     3.071047  s :     3.071047
      pz      :     1.000972  p :     2.960829
      px      :     1.001479
      py      :     0.958378
      dz2     :     0.010797  d :     0.040737
      dxz     :     0.007963
      dyz     :     0.010190
      dx2y2   :     0.005818
      dxy     :     0.005969
 20 C s       :     3.058223  s :     3.058223
      pz      :     0.968930  p :     3.010119
      px      :     1.074921
      py      :     0.966268
      dz2     :     0.006768  d :     0.042042
      dxz     :     0.008554
      dyz     :     0.014719
      dx2y2   :     0.005801
      dxy     :     0.006201
 21 H s       :     0.968858  s :     0.968858
      pz      :     0.012935  p :     0.024848
      px      :     0.005926
      py      :     0.005986
 22 C s       :     2.979397  s :     2.979397
      pz      :     0.935102  p :     2.929125
      px      :     1.039466
      py      :     0.954558
      dz2     :     0.005355  d :     0.035366
      dxz     :     0.007827
      dyz     :     0.009851
      dx2y2   :     0.003319
      dxy     :     0.009014
 23 H s       :     0.946311  s :     0.946311
      pz      :     0.004786  p :     0.023417
      px      :     0.009127
      py      :     0.009504
 24 H s       :     0.955842  s :     0.955842
      pz      :     0.008422  p :     0.023083
      px      :     0.006138
      py      :     0.008523
 25 C s       :     3.018601  s :     3.018601
      pz      :     0.977430  p :     3.004745
      px      :     1.005116
      py      :     1.022199
      dz2     :     0.006013  d :     0.037626
      dxz     :     0.008060
      dyz     :     0.009363
      dx2y2   :     0.003887
      dxy     :     0.010303
 26 H s       :     0.964335  s :     0.964335
      pz      :     0.004992  p :     0.024182
      px      :     0.010958
      py      :     0.008232
 27 H s       :     0.967385  s :     0.967385
      pz      :     0.008175  p :     0.024652
      px      :     0.006584
      py      :     0.009893
 28 C s       :     3.032956  s :     3.032956
      pz      :     0.971863  p :     2.996365
      px      :     1.028217
      py      :     0.996284
      dz2     :     0.004175  d :     0.026217
      dxz     :     0.008115
      dyz     :     0.004885
      dx2y2   :     0.004390
      dxy     :     0.004652
 29 H s       :     0.933574  s :     0.933574
      pz      :     0.004595  p :     0.023216
      px      :     0.005754
      py      :     0.012868
 30 H s       :     0.945327  s :     0.945327
      pz      :     0.006437  p :     0.022832
      px      :     0.009342
      py      :     0.007053
 31 H s       :     0.943272  s :     0.943272
      pz      :     0.009019  p :     0.024434
      px      :     0.010539
      py      :     0.004877
 32 H s       :     0.960545  s :     0.960545
      pz      :     0.009834  p :     0.026330
      px      :     0.008861
      py      :     0.007635
 33 H s       :     0.945981  s :     0.945981
      pz      :     0.003900  p :     0.026586
      px      :     0.009498
      py      :     0.013188


                     *******************************
                     * LOEWDIN POPULATION ANALYSIS *
                     *******************************

----------------------
LOEWDIN ATOMIC CHARGES
----------------------
   0 S :    0.422685
   1 C :   -0.193863
   2 C :   -0.064627
   3 C :   -0.059280
   4 C :   -0.185133
   5 H :    0.027902
   6 C :   -0.030263
   7 H :    0.036352
   8 H :    0.037863
   9 C :   -0.051693
  10 H :    0.020333
  11 H :    0.019644
  12 C :   -0.074634
  13 H :    0.032857
  14 H :    0.023918
  15 H :    0.030251
  16 S :    0.387026
  17 C :   -0.163182
  18 C :   -0.063377
  19 C :   -0.052638
  20 C :   -0.194046
  21 H :    0.029663
  22 C :   -0.032750
  23 H :    0.028805
  24 H :    0.030564
  25 C :   -0.044033
  26 H :    0.016445
  27 H :    0.015238
  28 C :   -0.064843
  29 H :    0.026400
  30 H :    0.027313
  31 H :    0.027529
  32 H :    0.014131
  33 H :    0.019442

-------------------------------
LOEWDIN REDUCED ORBITAL CHARGES
-------------------------------
  0 S s       :     5.486821  s :     5.486821
      pz      :     3.304125  p :     9.951166
      px      :     3.428046
      py      :     3.218995
      dz2     :     0.036804  d :     0.139328
      dxz     :     0.024741
      dyz     :     0.020220
      dx2y2   :     0.034816
      dxy     :     0.022746
  1 C s       :     2.892749  s :     2.892749
      pz      :     1.094370  p :     3.206494
      px      :     1.084039
      py      :     1.028085
      dz2     :     0.020636  d :     0.094620
      dxz     :     0.016337
      dyz     :     0.025999
      dx2y2   :     0.014499
      dxy     :     0.017149
  2 C s       :     2.855270  s :     2.855270
      pz      :     1.062423  p :     3.098782
      px      :     1.001832
      py      :     1.034528
      dz2     :     0.023328  d :     0.110575
      dxz     :     0.015576
      dyz     :     0.035707
      dx2y2   :     0.017002
      dxy     :     0.018962
  3 C s       :     2.866381  s :     2.866381
      pz      :     1.038668  p :     3.102822
      px      :     1.023206
      py      :     1.040949
      dz2     :     0.019468  d :     0.090077
      dxz     :     0.009817
      dyz     :     0.027979
      dx2y2   :     0.016172
      dxy     :     0.016641
  4 C s       :     2.902689  s :     2.902689
      pz      :     1.025629  p :     3.175179
      px      :     1.064491
      py      :     1.085059
      dz2     :     0.025946  d :     0.107265
      dxz     :     0.016155
      dyz     :     0.025169
      dx2y2   :     0.021100
      dxy     :     0.018895
  5 H s       :     0.900422  s :     0.900422
      pz      :     0.040864  p :     0.071676
      px      :     0.018342
      py      :     0.012469
  6 C s       :     2.828684  s :     2.828684
      pz      :     1.058576  p :     3.114294
      px      :     1.034599
      py      :     1.021120
      dz2     :     0.013391  d :     0.087285
      dxz     :     0.015172
      dyz     :     0.018664
      dx2y2   :     0.023256
      dxy     :     0.016801
  7 H s       :     0.902807  s :     0.902807
      pz      :     0.032436  p :     0.060841
      px      :     0.017039
      py      :     0.011366
  8 H s       :     0.891316  s :     0.891316
      pz      :     0.024137  p :     0.070821
      px      :     0.019453
      py      :     0.027232
  9 C s       :     2.832819  s :     2.832819
      pz      :     1.060675  p :     3.126475
      px      :     1.005990
      py      :     1.059810
      dz2     :     0.019448  d :     0.092399
      dxz     :     0.023972
      dyz     :     0.008800
      dx2y2   :     0.026800
      dxy     :     0.013379
 10 H s       :     0.914048  s :     0.914048
      pz      :     0.032905  p :     0.065618
      px      :     0.019291
      py      :     0.013422
 11 H s       :     0.909707  s :     0.909707
      pz      :     0.017382  p :     0.070650
      px      :     0.013911
      py      :     0.039356
 12 C s       :     2.851038  s :     2.851038
      pz      :     1.054381  p :     3.152616
      px      :     1.036083
      py      :     1.062152
      dz2     :     0.017184  d :     0.070980
      dxz     :     0.016285
      dyz     :     0.007531
      dx2y2   :     0.019566
      dxy     :     0.010413
 13 H s       :     0.902732  s :     0.902732
      pz      :     0.011827  p :     0.064411
      px      :     0.037050
      py      :     0.015534
 14 H s       :     0.913367  s :     0.913367
      pz      :     0.032474  p :     0.062715
      px      :     0.017806
      py      :     0.012435
 15 H s       :     0.907639  s :     0.907639
      pz      :     0.014461  p :     0.062110
      px      :     0.010505
      py      :     0.037144
 16 S s       :     5.514261  s :     5.514261
      pz      :     3.352634  p :     9.972865
      px      :     3.508087
      py      :     3.112145
      dz2     :     0.013872  d :     0.125847
      dxz     :     0.020121
      dyz     :     0.049538
      dx2y2   :     0.022286
      dxy     :     0.020030
 17 C s       :     2.908294  s :     2.908294
      pz      :     1.045178  p :     3.169155
      px      :     1.063361
      py      :     1.060616
      dz2     :     0.023752  d :     0.085733
      dxz     :     0.019303
      dyz     :     0.027536
      dx2y2   :     0.005211
      dxy     :     0.009931
 18 C s       :     2.853305  s :     2.853305
      pz      :     1.068788  p :     3.114148
      px      :     1.009587
      py      :     1.035774
      dz2     :     0.028532  d :     0.095923
      dxz     :     0.014988
      dyz     :     0.026267
      dx2y2   :     0.013372
      dxy     :     0.012765
 19 C s       :     2.870591  s :     2.870591
      pz      :     1.039106  p :     3.081326
      px      :     1.008215
      py      :     1.034005
      dz2     :     0.030349  d :     0.100721
      dxz     :     0.017040
      dyz     :     0.027262
      dx2y2   :     0.012504
      dxy     :     0.013566
 20 C s       :     2.915947  s :     2.915947
      pz      :     1.060841  p :     3.178248
      px      :     1.087429
      py      :     1.029979
      dz2     :     0.019586  d :     0.099851
      dxz     :     0.018518
      dyz     :     0.037005
      dx2y2   :     0.012088
      dxy     :     0.012653
 21 H s       :     0.897500  s :     0.897500
      pz      :     0.035688  p :     0.072837
      px      :     0.018094
      py      :     0.019054
 22 C s       :     2.826768  s :     2.826768
      pz      :     1.013308  p :     3.116785
      px      :     1.061920
      py      :     1.041557
      dz2     :     0.012476  d :     0.089198
      dxz     :     0.019549
      dyz     :     0.027038
      dx2y2   :     0.006994
      dxy     :     0.023141
 23 H s       :     0.901543  s :     0.901543
      pz      :     0.014493  p :     0.069652
      px      :     0.027088
      py      :     0.028072
 24 H s       :     0.901824  s :     0.901824
      pz      :     0.024969  p :     0.067612
      px      :     0.018148
      py      :     0.024494
 25 C s       :     2.821793  s :     2.821793
      pz      :     1.025829  p :     3.131809
      px      :     1.045493
      py      :     1.060487
      dz2     :     0.013205  d :     0.090430
      dxz     :     0.019429
      dyz     :     0.023867
      dx2y2   :     0.008350
      dxy     :     0.025579
 26 H s       :     0.909776  s :     0.909776
      pz      :     0.016228  p :     0.073779
      px      :     0.033529
      py      :     0.024022
 27 H s       :     0.911295  s :     0.911295
      pz      :     0.024718  p :     0.073468
      px      :     0.020611
      py      :     0.028138
 28 C s       :     2.847436  s :     2.847436
      pz      :     1.025282  p :     3.151295
      px      :     1.077120
      py      :     1.048893
      dz2     :     0.009774  d :     0.066112
      dxz     :     0.020377
      dyz     :     0.013123
      dx2y2   :     0.011150
      dxy     :     0.011689
 29 H s       :     0.908173  s :     0.908173
      pz      :     0.013621  p :     0.065427
      px      :     0.015371
      py      :     0.036435
 30 H s       :     0.909624  s :     0.909624
      pz      :     0.018614  p :     0.063063
      px      :     0.024894
      py      :     0.019555
 31 H s       :     0.904369  s :     0.904369
      pz      :     0.026297  p :     0.068101
      px      :     0.028792
      py      :     0.013012
 32 H s       :     0.902824  s :     0.902824
      pz      :     0.028490  p :     0.083045
      px      :     0.027364
      py      :     0.027192
 33 H s       :     0.896840  s :     0.896840
      pz      :     0.014344  p :     0.083718
      px      :     0.029339
      py      :     0.040035


                      *****************************
                      * MAYER POPULATION ANALYSIS *
                      *****************************

  NA   - Mulliken gross atomic population
  ZA   - Total nuclear charge
  QA   - Mulliken gross atomic charge
  VA   - Mayer's total valence
  BVA  - Mayer's bonded valence
  FA   - Mayer's free valence

  ATOM       NA         ZA         QA         VA         BVA        FA
  0 S     15.8806    16.0000     0.1194     2.4724     2.4724    -0.0000
  1 C      6.0852     6.0000    -0.0852     3.8589     3.8589    -0.0000
  2 C      6.0725     6.0000    -0.0725     4.0451     4.0451    -0.0000
  3 C      6.0315     6.0000    -0.0315     3.9601     3.9601    -0.0000
  4 C      6.0810     6.0000    -0.0810     3.8804     3.8804    -0.0000
  5 H      1.0027     1.0000    -0.0027     1.0113     1.0113    -0.0000
  6 C      5.9038     6.0000     0.0962     3.9426     3.9426     0.0000
  7 H      0.9710     1.0000     0.0290     0.9889     0.9889     0.0000
  8 H      0.9637     1.0000     0.0363     0.9838     0.9838    -0.0000
  9 C      6.1227     6.0000    -0.1227     4.0992     4.0992     0.0000
 10 H      0.9779     1.0000     0.0221     0.9781     0.9781     0.0000
 11 H      0.9770     1.0000     0.0230     0.9766     0.9766    -0.0000
 12 C      6.0708     6.0000    -0.0708     3.9782     3.9782    -0.0000
 13 H      0.9419     1.0000     0.0581     0.9843     0.9843    -0.0000
 14 H      0.9782     1.0000     0.0218     0.9891     0.9891    -0.0000
 15 H      0.9562     1.0000     0.0438     0.9917     0.9917    -0.0000
 16 S     15.9135    16.0000     0.0865     2.4462     2.4462     0.0000
 17 C      6.0433     6.0000    -0.0433     3.8457     3.8457     0.0000
 18 C      6.0082     6.0000    -0.0082     3.9735     3.9735    -0.0000
 19 C      6.0726     6.0000    -0.0726     4.0449     4.0449     0.0000
 20 C      6.1104     6.0000    -0.1104     3.9029     3.9029    -0.0000
 21 H      0.9937     1.0000     0.0063     0.9956     0.9956    -0.0000
 22 C      5.9439     6.0000     0.0561     3.9918     3.9918    -0.0000
 23 H      0.9697     1.0000     0.0303     0.9958     0.9958    -0.0000
 24 H      0.9789     1.0000     0.0211     0.9859     0.9859    -0.0000
 25 C      6.0610     6.0000    -0.0610     4.0621     4.0621     0.0000
 26 H      0.9885     1.0000     0.0115     0.9867     0.9867     0.0000
 27 H      0.9920     1.0000     0.0080     0.9812     0.9812    -0.0000
 28 C      6.0555     6.0000    -0.0555     3.9975     3.9975    -0.0000
 29 H      0.9568     1.0000     0.0432     0.9863     0.9863     0.0000
 30 H      0.9682     1.0000     0.0318     0.9924     0.9924     0.0000
 31 H      0.9677     1.0000     0.0323     0.9860     0.9860    -0.0000
 32 H      0.9869     1.0000     0.0131     1.0117     1.0117     0.0000
 33 H      0.9726     1.0000     0.0274     1.0048     1.0048     0.0000

  Mayer bond orders larger than 0.100000
B(  0-S ,  1-C ) :   1.1478 B(  0-S ,  4-C ) :   1.1302 B(  1-C ,  2-C ) :   1.6486 
B(  1-C , 32-H ) :   0.9611 B(  2-C ,  3-C ) :   1.2176 B(  2-C ,  6-C ) :   1.0193 
B(  3-C ,  4-C ) :   1.5966 B(  3-C ,  5-H ) :   0.9908 B(  4-C , 20-C ) :   1.0496 
B(  6-C ,  7-H ) :   0.9445 B(  6-C ,  8-H ) :   0.9262 B(  6-C ,  9-C ) :   1.0758 
B(  9-C , 10-H ) :   0.9564 B(  9-C , 11-H ) :   0.9563 B(  9-C , 12-C ) :   1.0688 
B( 12-C , 13-H ) :   0.9722 B( 12-C , 14-H ) :   0.9746 B( 12-C , 15-H ) :   0.9741 
B( 16-S , 17-C ) :   1.1361 B( 16-S , 20-C ) :   1.1230 B( 17-C , 18-C ) :   1.6324 
B( 17-C , 33-H ) :   0.9696 B( 18-C , 19-C ) :   1.2465 B( 18-C , 21-H ) :   0.9924 
B( 19-C , 20-C ) :   1.5925 B( 19-C , 22-C ) :   1.0412 B( 22-C , 23-H ) :   0.9386 
B( 22-C , 24-H ) :   0.9279 B( 22-C , 25-C ) :   1.0682 B( 25-C , 26-H ) :   0.9533 
B( 25-C , 27-H ) :   0.9483 B( 25-C , 28-C ) :   1.0715 B( 28-C , 29-H ) :   0.9787 
B( 28-C , 30-H ) :   0.9763 B( 28-C , 31-H ) :   0.9758 

-------
TIMINGS
-------

Total SCF time: 0 days 0 hours 0 min 29 sec 

Total time                  ....      29.278 sec
Sum of individual times     ....      28.124 sec  ( 96.1%)

Fock matrix formation       ....      26.155 sec  ( 89.3%)
  XC integration            ....       1.779 sec  (  6.8% of F)
    Basis function eval.    ....       0.228 sec  ( 12.8% of XC)
    Density eval.           ....       0.157 sec  (  8.8% of XC)
    XC-Functional eval.     ....       0.179 sec  ( 10.1% of XC)
    XC-Potential eval.      ....       0.194 sec  ( 10.9% of XC)
Diagonalization             ....       0.132 sec  (  0.4%)
Density matrix formation    ....       0.020 sec  (  0.1%)
Population analysis         ....       0.082 sec  (  0.3%)
Initial guess               ....       0.190 sec  (  0.6%)
Orbital Transformation      ....       0.000 sec  (  0.0%)
Orbital Orthonormalization  ....       0.000 sec  (  0.0%)
DIIS solution               ....       0.160 sec  (  0.5%)
SOSCF solution              ....       0.122 sec  (  0.4%)
Grid generation             ....       1.263 sec  (  4.3%)


-------------------------------------------------------------------------------
                          DFT DISPERSION CORRECTION                            
                                                                               
                              DFTD3 V3.1  Rev 1                                
                              USING zero damping                               
-------------------------------------------------------------------------------
The omegaB97X-D3 functional is recognized. Fit by Chai et al.
Active option DFTDOPT                   ...         3   

molecular C6(AA) [au] = 14180.713109 


            DFT-D V3
 parameters
 s6 scaling factor         :     1.0000 
 rs6 scaling factor        :     1.2810 
 s8 scaling factor         :     1.0000 
 rs8 scaling factor        :     1.0940 
 Damping factor alpha6     :    14.0000 
 Damping factor alpha8     :    16.0000 
 ad hoc parameters k1-k3   :    16.0000     1.3333    -4.0000 

 Edisp/kcal,au: -8.941525642374  -0.014249226598 
 E6   /kcal   :  -4.140245941 
 E8   /kcal   :  -4.801279702 
 % E8         :  53.696426021 

-------------------------   ----------------
Dispersion correction           -0.014249227
-------------------------   ----------------


-------------------------   --------------------
FINAL SINGLE POINT ENERGY     -1339.868687587728
-------------------------   --------------------


                            ***************************************
                            *     ORCA property calculations      *
                            ***************************************

                                    ---------------------
                                    Active property flags
                                    ---------------------
   (+) Dipole Moment


------------------------------------------------------------------------------
                       ORCA ELECTRIC PROPERTIES CALCULATION
------------------------------------------------------------------------------

Dipole Moment Calculation                       ... on
Quadrupole Moment Calculation                   ... off
Polarizability Calculation                      ... off
GBWName                                         ... config_6009.gbw
Electron density file                           ... config_6009.scfp
The origin for moment calculation is the CENTER OF MASS  = (-42.235881, -7.840713 176.083614)

-------------
DIPOLE MOMENT
-------------
                                X             Y             Z
Electronic contribution:      7.28962     -19.63928      24.09391
Nuclear contribution   :     -7.23413      20.05528     -24.66609
                        -----------------------------------------
Total Dipole Moment    :      0.05549       0.41600      -0.57218
                        -----------------------------------------
Magnitude (a.u.)       :      0.70959
Magnitude (Debye)      :      1.80364



--------------------
Rotational spectrum 
--------------------
 
Rotational constants in cm-1:     0.017337     0.009643     0.006596 
Rotational constants in MHz :   519.739017   289.079639   197.747921 

 Dipole components along the rotational axes: 
x,y,z [a.u.] :     0.231656    -0.655569     0.141714 
x,y,z [Debye]:     0.588823    -1.666325     0.360209 

 

Timings for individual modules:

Sum of individual times         ...       30.350 sec (=   0.506 min)
GTO integral calculation        ...        0.753 sec (=   0.013 min)   2.5 %
SCF iterations                  ...       29.597 sec (=   0.493 min)  97.5 %
                             ****ORCA TERMINATED NORMALLY****
TOTAL RUN TIME: 0 days 0 hours 0 minutes 30 seconds 997 msec
