
                                 *****************
                                 * O   R   C   A *
                                 *****************

           --- An Ab Initio, DFT and Semiempirical electronic structure package ---

                  #######################################################
                  #                        -***-                        #
                  #          Department of theory and spectroscopy      #
                  #               Directorship: Frank Neese             #
                  #        Max Planck Institute fuer Kohlenforschung    #
                  #                Kaiser Wilhelm Platz 1               #
                  #                 D-45470 Muelheim/Ruhr               #
                  #                      Germany                        #
                  #                                                     #
                  #                  All rights reserved                #
                  #                        -***-                        #
                  #######################################################


                         Program Version 4.2.1 -  RELEASE  -


 With contributions from (in alphabetic order):
   Daniel Aravena         : Magnetic Suceptibility
   Michael Atanasov       : Ab Initio Ligand Field Theory (pilot matlab implementation)
   Alexander A. Auer      : GIAO ZORA, VPT2
   Ute Becker             : Parallelization
   Giovanni Bistoni       : ED, misc. LED, open-shell LED, HFLD
   Martin Brehm           : Molecular dynamics
   Dmytro Bykov           : SCF Hessian
   Vijay G. Chilkuri      : MRCI spin determinant printing, contributions to CSF-ICE
   Dipayan Datta          : RHF DLPNO-CCSD density
   Achintya Kumar Dutta   : EOM-CC, STEOM-CC
   Dmitry Ganyushin       : Spin-Orbit,Spin-Spin,Magnetic field MRCI
   Miquel Garcia          : C-PCM Hessian, Gaussian charge scheme
   Yang Guo               : DLPNO-NEVPT2, CIM, IAO-localization
   Andreas Hansen         : Spin unrestricted coupled pair/coupled cluster methods
   Benjamin Helmich-Paris : CASSCF linear response (MC-RPA)
   Lee Huntington         : MR-EOM, pCC
   Robert Izsak           : Overlap fitted RIJCOSX, COSX-SCS-MP3, EOM
   Christian Kollmar      : KDIIS, OOCD, Brueckner-CCSD(T), CCSD density
   Simone Kossmann        : Meta GGA functionals, TD-DFT gradient, OOMP2, MP2 Hessian
   Martin Krupicka        : AUTO-CI
   Lucas Lang             : DCDCAS
   Dagmar Lenk            : GEPOL surface, SMD
   Dimitrios Liakos       : Extrapolation schemes; Compound Job, initial MDCI parallelization
   Dimitrios Manganas     : Further ROCIS development; embedding schemes
   Dimitrios Pantazis     : SARC Basis sets
   Taras Petrenko         : DFT Hessian,TD-DFT gradient, ASA, ECA, R-Raman, ABS, FL, XAS/XES, NRVS
   Peter Pinski           : DLPNO-MP2, DLPNO-MP2 Gradient
   Christoph Reimann      : Effective Core Potentials
   Marius Retegan         : Local ZFS, SOC
   Christoph Riplinger    : Optimizer, TS searches, QM/MM, DLPNO-CCSD(T), (RO)-DLPNO pert. Triples
   Tobias Risthaus        : Range-separated hybrids, TD-DFT gradient, RPA, STAB
   Michael Roemelt        : Original ROCIS implementation
   Masaaki Saitow         : Open-shell DLPNO-CCSD energy and density
   Barbara Sandhoefer     : DKH picture change effects
   Avijit Sen             : IP-ROCIS
   Kantharuban Sivalingam : CASSCF convergence, NEVPT2, FIC-MRCI
   Bernardo de Souza      : ESD, SOC TD-DFT
   Georgi Stoychev        : AutoAux, RI-MP2 NMR
   Willem Van den Heuvel  : Paramagnetic NMR
   Boris Wezisla          : Elementary symmetry handling
   Frank Wennmohs         : Technical directorship


 We gratefully acknowledge several colleagues who have allowed us to
 interface, adapt or use parts of their codes:
   Stefan Grimme, W. Hujo, H. Kruse,             : VdW corrections, initial TS optimization,
                  C. Bannwarth                     DFT functionals, gCP, sTDA/sTD-DF
   Ed Valeev, F. Pavosevic, A. Kumar             : LibInt (2-el integral package), F12 methods
   Garnet Chan, S. Sharma, J. Yang, R. Olivares  : DMRG
   Ulf Ekstrom                                   : XCFun DFT Library
   Mihaly Kallay                                 : mrcc  (arbitrary order and MRCC methods)
   Andreas Klamt, Michael Diedenhofen            : otool_cosmo (COSMO solvation model)
   Jiri Pittner, Ondrej Demel                    : Mk-CCSD
   Frank Weinhold                                : gennbo (NPA and NBO analysis)
   Christopher J. Cramer and Donald G. Truhlar   : smd solvation model
   Lars Goerigk                                  : TD-DFT with DH, B97 family of functionals
   V. Asgeirsson, H. Jonsson                     : NEB implementation
   FAccTs GmbH                                   : IRC, NEB, NEB-TS, Multilevel, MM, QM/MM, CI optimization
   S Lehtola, MJT Oliveira, MAL Marques          : LibXC Library


 Your calculation uses the libint2 library for the computation of 2-el integrals
 For citations please refer to: http://libint.valeyev.net

 Your ORCA version has been built with support for libXC version: 4.2.3
 For citations please refer to: https://tddft.org/programs/libxc/

 This ORCA versions uses:
   CBLAS   interface :  Fast vector & matrix operations
   LAPACKE interface :  Fast linear algebra routines
   SCALAPACK package :  Parallel linear algebra routines


Your calculation utilizes the atom-pairwise dispersion correction
with the zero-damping scheme (D30)
Cite in your paper:
S.Grimme, J.Antony, S.Ehrlich and H.Krieg, J.Chem.Phys., 132, (2010), 154104 
   

XCFun DFT library Copyright 2009-2010 Ulf Ekstrom and contributors.
See http://admol.org/xcfun for more information. This is free soft-
ware; see the source code for copying conditions. There is ABSOLUTELY
NO WARRANTY; not even for MERCHANTABILITY or FITNESS FOR A PARTICULAR
PURPOSE. For details see the documentation. Scientific users of this 
library should cite U. Ekstrom, L. Visscher, R. Bast, A. J. Thorvald-
sen and K. Ruud; J.Chem.Theor.Comp. 2010, DOI: 10.1021/ct100117s
XCFun Version 0.99 
----- Orbital basis set information -----
Your calculation utilizes the basis: def2-SVP
   F. Weigend and R. Ahlrichs, Phys. Chem. Chem. Phys. 7, 3297 (2005).

================================================================================
                                        WARNINGS
                       Please study these warnings very carefully!
================================================================================


INFO   : the flag for use of LIBINT has been found!

================================================================================
                                       INPUT FILE
================================================================================
NAME = config_9847.inp
|  1> ! wB97X-D3 SP def2-SVP
|  2> %pal
|  3> nprocs 16
|  4> end
|  5> 
|  6> * xyz 0 1
|  7> S 	 -31.4295 	 67.4168 	 140.692 	 
|  8> C 	 -30.8668 	 68.9175 	 141.271 	 
|  9> C 	 -31.5266 	 69.3166 	 142.425 	 
| 10> C 	 -32.7313 	 68.5877 	 142.573 	 
| 11> C 	 -32.7501 	 67.3908 	 141.831 	 
| 12> H 	 -33.4987 	 68.838 	 143.257 	 
| 13> C 	 -31.0962 	 70.5509 	 143.226 	 
| 14> H 	 -30.0347 	 70.6952 	 142.953 	 
| 15> H 	 -31.118 	 70.3369 	 144.294 	 
| 16> C 	 -31.9416 	 71.754 	 142.92 	 
| 17> H 	 -33.0091 	 71.5513 	 143.162 	 
| 18> H 	 -31.6927 	 72.5386 	 143.675 	 
| 19> C 	 -31.6824 	 72.2609 	 141.517 	 
| 20> H 	 -30.6113 	 72.5495 	 141.505 	 
| 21> H 	 -31.8924 	 71.5964 	 140.722 	 
| 22> H 	 -32.3047 	 73.1228 	 141.284 	 
| 23> S 	 -34.7167 	 66.1241 	 140.309 	 
| 24> C 	 -35.6507 	 64.8919 	 140.98 	 
| 25> C 	 -35.4289 	 64.797 	 142.377 	 
| 26> C 	 -34.396 	 65.6476 	 142.851 	 
| 27> C 	 -33.8517 	 66.4207 	 141.822 	 
| 28> H 	 -35.9625 	 63.9781 	 142.767 	 
| 29> C 	 -33.894 	 65.5238 	 144.274 	 
| 30> H 	 -32.7708 	 65.4809 	 144.204 	 
| 31> H 	 -34.0534 	 64.497 	 144.629 	 
| 32> C 	 -34.3168 	 66.4218 	 145.454 	 
| 33> H 	 -35.3222 	 66.2622 	 145.578 	 
| 34> H 	 -34.1854 	 67.4742 	 145.122 	 
| 35> C 	 -33.4023 	 66.1201 	 146.668 	 
| 36> H 	 -33.546 	 65.1568 	 147.111 	 
| 37> H 	 -33.6664 	 66.8949 	 147.398 	 
| 38> H 	 -32.334 	 66.2396 	 146.405 	 
| 39> H 	 -29.9613 	 69.4261 	 140.929 	 
| 40> H 	 -36.5133 	 64.4447 	 140.495 	 
| 41> *
| 42> 
| 43>                          ****END OF INPUT****
================================================================================

                       ****************************
                       * Single Point Calculation *
                       ****************************

---------------------------------
CARTESIAN COORDINATES (ANGSTROEM)
---------------------------------
  S    -31.429500   67.416800  140.692000
  C    -30.866800   68.917500  141.271000
  C    -31.526600   69.316600  142.425000
  C    -32.731300   68.587700  142.573000
  C    -32.750100   67.390800  141.831000
  H    -33.498700   68.838000  143.257000
  C    -31.096200   70.550900  143.226000
  H    -30.034700   70.695200  142.953000
  H    -31.118000   70.336900  144.294000
  C    -31.941600   71.754000  142.920000
  H    -33.009100   71.551300  143.162000
  H    -31.692700   72.538600  143.675000
  C    -31.682400   72.260900  141.517000
  H    -30.611300   72.549500  141.505000
  H    -31.892400   71.596400  140.722000
  H    -32.304700   73.122800  141.284000
  S    -34.716700   66.124100  140.309000
  C    -35.650700   64.891900  140.980000
  C    -35.428900   64.797000  142.377000
  C    -34.396000   65.647600  142.851000
  C    -33.851700   66.420700  141.822000
  H    -35.962500   63.978100  142.767000
  C    -33.894000   65.523800  144.274000
  H    -32.770800   65.480900  144.204000
  H    -34.053400   64.497000  144.629000
  C    -34.316800   66.421800  145.454000
  H    -35.322200   66.262200  145.578000
  H    -34.185400   67.474200  145.122000
  C    -33.402300   66.120100  146.668000
  H    -33.546000   65.156800  147.111000
  H    -33.666400   66.894900  147.398000
  H    -32.334000   66.239600  146.405000
  H    -29.961300   69.426100  140.929000
  H    -36.513300   64.444700  140.495000

----------------------------
CARTESIAN COORDINATES (A.U.)
----------------------------
  NO LB      ZA    FRAG     MASS         X           Y           Z
   0 S    16.0000    0    32.060  -59.393148  127.399289  265.869349
   1 C     6.0000    0    12.011  -58.329799  130.235201  266.963501
   2 C     6.0000    0    12.011  -59.576640  130.989391  269.144245
   3 C     6.0000    0    12.011  -61.853193  129.611969  269.423924
   4 C     6.0000    0    12.011  -61.888720  127.350156  268.021747
   5 H     1.0000    0     1.008  -63.303369  130.084968  270.716497
   6 C     6.0000    0    12.011  -58.763302  133.321880  270.657915
   7 H     1.0000    0     1.008  -56.757358  133.594567  270.142020
   8 H     1.0000    0     1.008  -58.804498  132.917478  272.676143
   9 C     6.0000    0    12.011  -60.360876  135.595409  270.079659
  10 H     1.0000    0     1.008  -62.378159  135.212362  270.536973
  11 H     1.0000    0     1.008  -59.890523  137.078088  271.506402
  12 C     6.0000    0    12.011  -59.871059  136.553311  267.428373
  13 H     1.0000    0     1.008  -57.846974  137.098686  267.405697
  14 H     1.0000    0     1.008  -60.267902  135.297588  265.926041
  15 H     1.0000    0     1.008  -61.047036  138.182066  266.988067
  16 S    16.0000    0    32.060  -65.605055  124.956440  265.145584
  17 C     6.0000    0    12.011  -67.370059  122.627919  266.413590
  18 C     6.0000    0    12.011  -66.950918  122.448584  269.053538
  19 C     6.0000    0    12.011  -64.999020  124.055985  269.949268
  20 C     6.0000    0    12.011  -63.970442  125.516933  268.004740
  21 H     1.0000    0     1.008  -67.959276  120.901088  269.790531
  22 C     6.0000    0    12.011  -64.050378  123.822037  272.638348
  23 H     1.0000    0     1.008  -61.927837  123.740968  272.506067
  24 H     1.0000    0     1.008  -64.351600  121.881666  273.309201
  25 C     6.0000    0    12.011  -64.849354  125.519011  274.868225
  26 H     1.0000    0     1.008  -66.749284  125.217411  275.102551
  27 H     1.0000    0     1.008  -64.601044  127.507759  274.240836
  28 C     6.0000    0    12.011  -63.121199  124.948881  277.162353
  29 H     1.0000    0     1.008  -63.392753  123.128508  277.999501
  30 H     1.0000    0     1.008  -63.620276  126.413041  278.541853
  31 H     1.0000    0     1.008  -61.102405  125.174703  276.665355
  32 H     1.0000    0     1.008  -56.618652  131.196316  266.317214
  33 H     1.0000    0     1.008  -69.000137  121.782834  265.497073

--------------------------------
INTERNAL COORDINATES (ANGSTROEM)
--------------------------------
 S      0   0   0     0.000000000000     0.00000000     0.00000000
 C      1   0   0     1.704104685751     0.00000000     0.00000000
 C      2   1   0     1.387923935236   112.25676443     0.00000000
 C      3   2   1     1.415804117807   110.08286208   342.47703854
 C      4   3   2     1.408363252148   113.19205336    19.98510890
 H      4   3   2     1.058021195440   124.26022888   192.76351049
 C      3   2   1     1.533082401569   122.17232362   173.00593997
 H      7   3   2     1.105501578470   104.21928479   336.95683556
 H      7   3   2     1.089447217629   110.39106033   222.75268578
 C      7   3   2     1.501927684677   112.36166782    99.25865467
 H     10   7   3     1.113196990653   110.46407384    59.84484302
 H     10   7   3     1.116948239624   107.43002094   169.41273629
 C     10   7   3     1.514114014861   111.13718219   290.61685394
 H     13  10   7     1.109364308963   105.21259230   298.35748870
 H     13  10   7     1.057206342206   116.89565383    61.13245655
 H     13  10   7     1.088309652626   111.44642385   179.04701896
 S      5   4   3     2.790793516189   133.03684857   220.94134183
 C     17   5   4     1.685501064966   120.34416696   263.24737426
 C     18  17   5     1.417677766631   110.76497714     9.28103127
 C     19  18  17     1.419534701936   113.75151201   353.98443401
 C     20  19  18     1.397421589929   111.65642217     1.62894854
 H     19  18  17     1.052343180716   109.75239708   184.26746308
 C     20  19  18     1.514020950978   120.40442258   189.01213695
 H     23  20  19     1.126196541462   105.98469832   130.88928106
 H     23  20  19     1.098067211058   109.40172583    26.80006982
 C     23  20  19     1.541935095910   125.50175308   260.89736195
 H     26  23  20     1.025513198355   105.70710079    62.99047550
 H     26  23  20     1.111321609616   106.88588719   308.75963007
 C     26  23  20     1.549557723997   108.92538050   189.46771235
 H     29  26  23     1.069974569791   114.85977039   290.95845921
 H     29  26  23     1.096797086976   103.99252786   171.74228465
 H     29  26  23     1.106668035140   111.25357703    55.35007518
 H      2   1   3     1.093420417772   125.22615321   167.62795398
 H     18  17   5     1.085951932638   124.29281202   171.73443558

---------------------------
INTERNAL COORDINATES (A.U.)
---------------------------
 S      0   0   0     0.000000000000     0.00000000     0.00000000
 C      1   0   0     3.220291159602     0.00000000     0.00000000
 C      2   1   0     2.622796132310   112.25676443     0.00000000
 C      3   2   1     2.675482041934   110.08286208   342.47703854
 C      4   3   2     2.661420843638   113.19205336    19.98510890
 H      4   3   2     1.999370303265   124.26022888   192.76351049
 C      3   2   1     2.897105879699   122.17232362   173.00593997
 H      7   3   2     2.089095223926   104.21928479   336.95683556
 H      7   3   2     2.058756878682   110.39106033   222.75268578
 C      7   3   2     2.838231996994   112.36166782    99.25865467
 H     10   7   3     2.103637445440   110.46407384    59.84484302
 H     10   7   3     2.110726278656   107.43002094   169.41273629
 C     10   7   3     2.861260823620   111.13718219   290.61685394
 H     13  10   7     2.096394726686   105.21259230   298.35748870
 H     13  10   7     1.997830453813   116.89565383    61.13245655
 H     13  10   7     2.056607192367   111.44642385   179.04701896
 S      5   4   3     5.273835441919   133.03684857   220.94134183
 C     17   5   4     3.185135411217   120.34416696   263.24737426
 C     18  17   5     2.679022725082   110.76497714     9.28103127
 C     19  18  17     2.682531824256   113.75151201   353.98443401
 C     20  19  18     2.640744098595   111.65642217     1.62894854
 H     19  18  17     1.988640410453   109.75239708   184.26746308
 C     20  19  18     2.861084958367   120.40442258   189.01213695
 H     23  20  19     2.128203036332   105.98469832   130.88928106
 H     23  20  19     2.075046305538   109.40172583    26.80006982
 C     23  20  19     2.913835047552   125.50175308   260.89736195
 H     26  23  20     1.937939091612   105.70710079    62.99047550
 H     26  23  20     2.100093488883   106.88588719   308.75963007
 C     26  23  20     2.928239727057   108.92538050   189.46771235
 H     29  26  23     2.021958907166   114.85977039   290.95845921
 H     29  26  23     2.072646118868   103.99252786   171.74228465
 H     29  26  23     2.091299507579   111.25357703    55.35007518
 H      2   1   3     2.066265138826   125.22615321   167.62795398
 H     18  17   5     2.052151747288   124.29281202   171.73443558

---------------------
BASIS SET INFORMATION
---------------------
There are 3 groups of distinct atoms

 Group   1 Type S   : 10s7p1d contracted to 4s3p1d pattern {5311/511/1}
 Group   2 Type C   : 7s4p1d contracted to 3s2p1d pattern {511/31/1}
 Group   3 Type H   : 4s1p contracted to 2s1p pattern {31/1}

Atom   0S    basis set group =>   1
Atom   1C    basis set group =>   2
Atom   2C    basis set group =>   2
Atom   3C    basis set group =>   2
Atom   4C    basis set group =>   2
Atom   5H    basis set group =>   3
Atom   6C    basis set group =>   2
Atom   7H    basis set group =>   3
Atom   8H    basis set group =>   3
Atom   9C    basis set group =>   2
Atom  10H    basis set group =>   3
Atom  11H    basis set group =>   3
Atom  12C    basis set group =>   2
Atom  13H    basis set group =>   3
Atom  14H    basis set group =>   3
Atom  15H    basis set group =>   3
Atom  16S    basis set group =>   1
Atom  17C    basis set group =>   2
Atom  18C    basis set group =>   2
Atom  19C    basis set group =>   2
Atom  20C    basis set group =>   2
Atom  21H    basis set group =>   3
Atom  22C    basis set group =>   2
Atom  23H    basis set group =>   3
Atom  24H    basis set group =>   3
Atom  25C    basis set group =>   2
Atom  26H    basis set group =>   3
Atom  27H    basis set group =>   3
Atom  28C    basis set group =>   2
Atom  29H    basis set group =>   3
Atom  30H    basis set group =>   3
Atom  31H    basis set group =>   3
Atom  32H    basis set group =>   3
Atom  33H    basis set group =>   3


           ************************************************************
           *        Program running with 16 parallel MPI-processes    *
           *              working on a common directory               *
           ************************************************************
------------------------------------------------------------------------------
                           ORCA GTO INTEGRAL CALCULATION
------------------------------------------------------------------------------

                         BASIS SET STATISTICS AND STARTUP INFO

 # of primitive gaussian shells          ...  294
 # of primitive gaussian functions       ...  534
 # of contracted shells                  ...  154
 # of contracted basis functions         ...  322
 Highest angular momentum                ...    2
 Maximum contraction depth               ...    5
 Integral package used                   ... LIBINT
 Integral threshhold            Thresh   ...  1.000e-10
 Primitive cut-off              TCut     ...  1.000e-11


------------------------------ INTEGRAL EVALUATION ----------------------------


 * One electron integrals 
 Pre-screening matrix                    ... done
 Shell pair data                         ... done (   0.003 sec)



           ************************************************************
           *        Program running with 16 parallel MPI-processes    *
           *              working on a common directory               *
           ************************************************************
-------------------------------------------------------------------------------
                                 ORCA SCF
-------------------------------------------------------------------------------

------------
SCF SETTINGS
------------
Hamiltonian:
 Density Functional     Method          .... DFT(GTOs)
 Exchange Functional    Exchange        .... WB97X-D3
 Correlation Functional Correlation     .... WB97X-D3
 Gradients option       PostSCFGGA      .... off
 Hybrid DFT is turned on
   Fraction HF Exchange ScalHFX         ....  0.195728
   Scaling of DF-GGA-X  ScalDFX         ....  0.000000
   Scaling of DF-GGA-C  ScalDFC         ....  1.000000
   Scaling of DF-LDA-C  ScalLDAC        ....  1.000000
   Perturbative correction              ....  0.000000
   Density functional embedding theory  .... OFF
 Long-range corrected/Screened/Range-Separated Hybrid DFT is turned on
   Amount of maximum screened exact exchange              ....  0.804272
   Range separation parameter mu (erf(mu*r12)/r12)        ....  0.250000


General Settings:
 Integral files         IntName         .... config_9847
 Hartree-Fock type      HFTyp           .... RHF
 Total Charge           Charge          ....    0
 Multiplicity           Mult            ....    1
 Number of Electrons    NEL             ....  134
 Basis Dimension        Dim             ....  322
 Nuclear Repulsion      ENuc            ....   1284.8377043020 Eh

Convergence Acceleration:
 DIIS                   CNVDIIS         .... on
   Start iteration      DIISMaxIt       ....    12
   Startup error        DIISStart       ....  0.200000
   # of expansion vecs  DIISMaxEq       ....     5
   Bias factor          DIISBfac        ....   1.050
   Max. coefficient     DIISMaxC        ....  10.000
 Newton-Raphson         CNVNR           .... off
 SOSCF                  CNVSOSCF        .... on
   Start iteration      SOSCFMaxIt      ....   150
   Startup grad/error   SOSCFStart      ....  0.003300
 Level Shifting         CNVShift        .... on
   Level shift para.    LevelShift      ....    0.2500
   Turn off err/grad.   ShiftErr        ....    0.0010
 Zerner damping         CNVZerner       .... off
 Static damping         CNVDamp         .... on
   Fraction old density DampFac         ....    0.7000
   Max. Damping (<1)    DampMax         ....    0.9800
   Min. Damping (>=0)   DampMin         ....    0.0000
   Turn off err/grad.   DampErr         ....    0.1000
 Fernandez-Rico         CNVRico         .... off

SCF Procedure:
 Maximum # iterations   MaxIter         ....   125
 SCF integral mode      SCFMode         .... Direct
   Integral package                     .... LIBINT
 Reset frequency        DirectResetFreq ....    20
 Integral Threshold     Thresh          ....  1.000e-10 Eh
 Primitive CutOff       TCut            ....  1.000e-11 Eh

Convergence Tolerance:
 Convergence Check Mode ConvCheckMode   .... Total+1el-Energy
 Convergence forced     ConvForced      .... 0
 Energy Change          TolE            ....  1.000e-06 Eh
 1-El. energy change                    ....  1.000e-03 Eh
 Orbital Gradient       TolG            ....  5.000e-05
 Orbital Rotation angle TolX            ....  5.000e-05
 DIIS Error             TolErr          ....  1.000e-06


Diagonalization of the overlap matrix:
Smallest eigenvalue                        ... 6.644e-04
Time for diagonalization                   ...    0.016 sec
Threshold for overlap eigenvalues          ... 1.000e-08
Number of eigenvalues below threshold      ... 0
Time for construction of square roots      ...    0.022 sec
Total time needed                          ...    0.039 sec

-------------------
DFT GRID GENERATION
-------------------

General Integration Accuracy     IntAcc      ...  4.340
Radial Grid Type                 RadialGrid  ... Gauss-Chebyshev
Angular Grid (max. acc.)         AngularGrid ... Lebedev-110
Angular grid pruning method      GridPruning ... 3 (G Style)
Weight generation scheme         WeightScheme... Becke
Basis function cutoff            BFCut       ...    1.0000e-10
Integration weight cutoff        WCut        ...    1.0000e-14
Grids for H and He will be reduced by one unit

# of grid points (after initial pruning)     ...  41088 (   0.0 sec)
# of grid points (after weights+screening)   ...  36960 (   0.0 sec)
nearest neighbour list constructed           ...    0.0 sec
Grid point re-assignment to atoms done       ...    0.0 sec
Grid point division into batches done        ...    0.0 sec
Reduced shell lists constructed in    0.1 sec

Total number of grid points                  ...    36960
Total number of batches                      ...      597
Average number of points per batch           ...       61
Average number of grid points per atom       ...     1087
Average number of shells per batch           ...    76.56 (49.72%)
Average number of basis functions per batch  ...   150.97 (46.89%)
Average number of large shells per batch     ...    48.54 (63.40%)
Average number of large basis fcns per batch ...   100.54 (66.59%)
Maximum spatial batch extension              ...  13.62, 16.54, 16.97 au
Average spatial batch extension              ...   0.23,  0.24,  0.23 au

Time for grid setup =    0.232 sec

------------------------------
INITIAL GUESS: MODEL POTENTIAL
------------------------------
Loading Hartree-Fock densities                     ... done
Calculating cut-offs                               ... done
Setting up the integral package                    ... done
Initializing the effective Hamiltonian             ... done
Starting the Coulomb interaction                   ... done (   0.0 sec)
Reading the grid                                   ... done
Mapping shells                                     ... done
Starting the XC term evaluation                    ... done (   0.0 sec)
  promolecular density results
     # of electrons  =    133.992657516
     EX              =   -126.737657362
     EC              =     -4.621944230
     EX+EC           =   -131.359601592
Transforming the Hamiltonian                       ... done (   0.1 sec)
Diagonalizing the Hamiltonian                      ... done (   0.0 sec)
Back transforming the eigenvectors                 ... done (   0.0 sec)
Now organizing SCF variables                       ... done
                      ------------------
                      INITIAL GUESS DONE (   0.6 sec)
                      ------------------
--------------
SCF ITERATIONS
--------------
ITER       Energy         Delta-E        Max-DP      RMS-DP      [F,P]     Damp
               ***  Starting incremental Fock matrix formation  ***
  0  -1339.4202907872   0.000000000000 0.06627641  0.00159138  0.1679686 0.7000
  1  -1339.6088200012  -0.188529214017 0.04429042  0.00115540  0.1006391 0.7000
                               ***Turning on DIIS***
  2  -1339.6999145092  -0.091094507919 0.07666507  0.00214726  0.0515249 0.0000
  3  -1339.8373847854  -0.137470276277 0.04205168  0.00100400  0.0377613 0.0000
  4  -1339.8670573503  -0.029672564816 0.00754755  0.00020089  0.0074971 0.0000
                      *** Initiating the SOSCF procedure ***
                           *** Shutting down DIIS ***
                      *** Re-Reading the Fockian *** 
                      *** Removing any level shift *** 
ITER      Energy       Delta-E        Grad      Rot      Max-DP    RMS-DP
  5  -1339.86797309  -0.0009157404  0.001761  0.001761  0.003145  0.000100
               *** Restarting incremental Fock matrix formation ***
  6  -1339.86815130  -0.0001782050  0.001469  0.004127  0.002340  0.000062
  7  -1339.86820910  -0.0000578003  0.000891  0.005403  0.002631  0.000060
  8  -1339.86822438  -0.0000152834  0.000308  0.000771  0.000753  0.000020
  9  -1339.86822849  -0.0000041098  0.000162  0.000351  0.000325  0.000009
 10  -1339.86822897  -0.0000004818  0.000057  0.000231  0.000147  0.000004
                 **** Energy Check signals convergence ****
              ***Rediagonalizing the Fockian in SOSCF/NRSCF***

               *****************************************************
               *                     SUCCESS                       *
               *           SCF CONVERGED AFTER  11 CYCLES          *
               *****************************************************

Setting up the final grid:

General Integration Accuracy     IntAcc      ...  4.670
Radial Grid Type                 RadialGrid  ... Gauss-Chebyshev
Angular Grid (max. acc.)         AngularGrid ... Lebedev-302
Angular grid pruning method      GridPruning ... 3 (G Style)
Weight generation scheme         WeightScheme... Becke
Basis function cutoff            BFCut       ...    1.0000e-10
Integration weight cutoff        WCut        ...    1.0000e-14
Grids for H and He will be reduced by one unit

# of grid points (after initial pruning)     ... 161752 (   0.0 sec)
# of grid points (after weights+screening)   ... 142728 (   0.2 sec)
nearest neighbour list constructed           ...    0.0 sec
Grid point re-assignment to atoms done       ...    0.0 sec
Grid point division into batches done        ...    0.5 sec
Reduced shell lists constructed in    0.7 sec

Total number of grid points                  ...   142728
Total number of batches                      ...     2247
Average number of points per batch           ...       63
Average number of grid points per atom       ...     4198
Average number of shells per batch           ...    70.95 (46.07%)
Average number of basis functions per batch  ...   139.43 (43.30%)
Average number of large shells per batch     ...    43.40 (61.17%)
Average number of large basis fcns per batch ...    88.73 (63.63%)
Maximum spatial batch extension              ...  16.44, 16.01, 12.97 au
Average spatial batch extension              ...   0.15,  0.15,  0.15 au

Final grid set up in    1.1 sec
Final integration                            ... done (   0.4 sec)
Change in XC energy                          ...     0.005208587
Integrated number of electrons               ...   133.999762962
Previous integrated no of electrons          ...   134.000196139

----------------
TOTAL SCF ENERGY
----------------

Total Energy       :        -1339.86302063 Eh          -36459.52636 eV

Components:
Nuclear Repulsion  :         1284.83770430 Eh           34962.21138 eV
Electronic Energy  :        -2624.70072494 Eh          -71421.73774 eV
One Electron Energy:        -4386.32943289 Eh         -119358.09192 eV
Two Electron Energy:         1761.62870795 Eh           47936.35418 eV

Virial components:
Potential Energy   :        -2671.46711916 Eh          -72694.31602 eV
Kinetic Energy     :         1331.60409853 Eh           36234.78966 eV
Virial Ratio       :            2.00620224


DFT components:
N(Alpha)           :       66.999881481073 electrons
N(Beta)            :       66.999881481073 electrons
N(Total)           :      133.999762962146 electrons
E(XC)              :      -94.275178993785 Eh       
DFET-embed. en.    :        0.000000000000 Eh       

---------------
SCF CONVERGENCE
---------------

  Last Energy change         ...   -2.4934e-07  Tolerance :   1.0000e-06
  Last MAX-Density change    ...    2.8833e-05  Tolerance :   1.0000e-05
  Last RMS-Density change    ...    7.1878e-07  Tolerance :   1.0000e-06
  Last Orbital Gradient      ...    7.9148e-06  Tolerance :   5.0000e-05
  Last Orbital Rotation      ...    3.0543e-05  Tolerance :   5.0000e-05

             **** THE GBW FILE WAS UPDATED (config_9847.gbw) ****
             **** DENSITY FILE WAS UPDATED (config_9847.scfp) ****
             **** ENERGY FILE WAS UPDATED (config_9847.en.tmp) ****
             **** THE GBW FILE WAS UPDATED (config_9847.gbw) ****
             **** DENSITY FILE WAS UPDATED (config_9847.scfp) ****
----------------
ORBITAL ENERGIES
----------------

  NO   OCC          E(Eh)            E(eV) 
   0   2.0000     -88.967588     -2420.9311 
   1   2.0000     -88.964664     -2420.8516 
   2   2.0000     -10.329232      -281.0727 
   3   2.0000     -10.327546      -281.0268 
   4   2.0000     -10.312437      -280.6157 
   5   2.0000     -10.310934      -280.5748 
   6   2.0000     -10.306360      -280.4503 
   7   2.0000     -10.297696      -280.2146 
   8   2.0000     -10.292783      -280.0809 
   9   2.0000     -10.292560      -280.0748 
  10   2.0000     -10.289381      -279.9883 
  11   2.0000     -10.289095      -279.9805 
  12   2.0000     -10.288947      -279.9765 
  13   2.0000     -10.284335      -279.8510 
  14   2.0000     -10.281329      -279.7692 
  15   2.0000     -10.273227      -279.5487 
  16   2.0000      -8.082892      -219.9467 
  17   2.0000      -8.080197      -219.8733 
  18   2.0000      -6.041239      -164.3905 
  19   2.0000      -6.038453      -164.3147 
  20   2.0000      -6.037205      -164.2807 
  21   2.0000      -6.034363      -164.2034 
  22   2.0000      -6.033915      -164.1912 
  23   2.0000      -6.031405      -164.1229 
  24   2.0000      -1.007737       -27.4219 
  25   2.0000      -0.988198       -26.8902 
  26   2.0000      -0.917163       -24.9573 
  27   2.0000      -0.907245       -24.6874 
  28   2.0000      -0.865820       -23.5602 
  29   2.0000      -0.853822       -23.2337 
  30   2.0000      -0.847168       -23.0526 
  31   2.0000      -0.809466       -22.0267 
  32   2.0000      -0.783092       -21.3090 
  33   2.0000      -0.772710       -21.0265 
  34   2.0000      -0.711465       -19.3600 
  35   2.0000      -0.700768       -19.0689 
  36   2.0000      -0.687769       -18.7151 
  37   2.0000      -0.658764       -17.9259 
  38   2.0000      -0.639822       -17.4104 
  39   2.0000      -0.622332       -16.9345 
  40   2.0000      -0.593542       -16.1511 
  41   2.0000      -0.571169       -15.5423 
  42   2.0000      -0.563853       -15.3432 
  43   2.0000      -0.556872       -15.1533 
  44   2.0000      -0.542972       -14.7750 
  45   2.0000      -0.520733       -14.1699 
  46   2.0000      -0.518279       -14.1031 
  47   2.0000      -0.508112       -13.8264 
  48   2.0000      -0.503497       -13.7008 
  49   2.0000      -0.497539       -13.5387 
  50   2.0000      -0.490097       -13.3362 
  51   2.0000      -0.477915       -13.0047 
  52   2.0000      -0.471916       -12.8415 
  53   2.0000      -0.464899       -12.6505 
  54   2.0000      -0.460340       -12.5265 
  55   2.0000      -0.446913       -12.1611 
  56   2.0000      -0.440584       -11.9889 
  57   2.0000      -0.438618       -11.9354 
  58   2.0000      -0.437350       -11.9009 
  59   2.0000      -0.429050       -11.6750 
  60   2.0000      -0.421693       -11.4749 
  61   2.0000      -0.412888       -11.2353 
  62   2.0000      -0.410357       -11.1664 
  63   2.0000      -0.340535        -9.2664 
  64   2.0000      -0.333435        -9.0732 
  65   2.0000      -0.325821        -8.8660 
  66   2.0000      -0.292143        -7.9496 
  67   0.0000       0.030107         0.8192 
  68   0.0000       0.069106         1.8805 
  69   0.0000       0.115802         3.1511 
  70   0.0000       0.123268         3.3543 
  71   0.0000       0.130080         3.5396 
  72   0.0000       0.141583         3.8527 
  73   0.0000       0.149435         4.0663 
  74   0.0000       0.162023         4.4089 
  75   0.0000       0.163739         4.4556 
  76   0.0000       0.169364         4.6086 
  77   0.0000       0.177122         4.8197 
  78   0.0000       0.191430         5.2091 
  79   0.0000       0.195874         5.3300 
  80   0.0000       0.198701         5.4069 
  81   0.0000       0.204776         5.5722 
  82   0.0000       0.217332         5.9139 
  83   0.0000       0.220268         5.9938 
  84   0.0000       0.222456         6.0533 
  85   0.0000       0.228002         6.2043 
  86   0.0000       0.236525         6.4362 
  87   0.0000       0.242907         6.6098 
  88   0.0000       0.246183         6.6990 
  89   0.0000       0.251344         6.8394 
  90   0.0000       0.256604         6.9826 
  91   0.0000       0.260079         7.0771 
  92   0.0000       0.287875         7.8335 
  93   0.0000       0.305253         8.3063 
  94   0.0000       0.313258         8.5242 
  95   0.0000       0.314123         8.5477 
  96   0.0000       0.337429         9.1819 
  97   0.0000       0.344126         9.3642 
  98   0.0000       0.348316         9.4782 
  99   0.0000       0.364287         9.9128 
 100   0.0000       0.382415        10.4060 
 101   0.0000       0.393878        10.7180 
 102   0.0000       0.412512        11.2250 
 103   0.0000       0.426080        11.5942 
 104   0.0000       0.440241        11.9796 
 105   0.0000       0.447687        12.1822 
 106   0.0000       0.461117        12.5476 
 107   0.0000       0.469645        12.7797 
 108   0.0000       0.485434        13.2093 
 109   0.0000       0.488733        13.2991 
 110   0.0000       0.501028        13.6337 
 111   0.0000       0.508952        13.8493 
 112   0.0000       0.512818        13.9545 
 113   0.0000       0.519216        14.1286 
 114   0.0000       0.537353        14.6221 
 115   0.0000       0.542921        14.7736 
 116   0.0000       0.549580        14.9548 
 117   0.0000       0.551524        15.0077 
 118   0.0000       0.559153        15.2153 
 119   0.0000       0.574481        15.6324 
 120   0.0000       0.581193        15.8151 
 121   0.0000       0.587737        15.9931 
 122   0.0000       0.600262        16.3340 
 123   0.0000       0.607065        16.5191 
 124   0.0000       0.618367        16.8266 
 125   0.0000       0.626652        17.0521 
 126   0.0000       0.637894        17.3580 
 127   0.0000       0.642175        17.4745 
 128   0.0000       0.645416        17.5627 
 129   0.0000       0.663460        18.0537 
 130   0.0000       0.679917        18.5015 
 131   0.0000       0.684848        18.6356 
 132   0.0000       0.695240        18.9184 
 133   0.0000       0.698757        19.0142 
 134   0.0000       0.707060        19.2401 
 135   0.0000       0.717553        19.5256 
 136   0.0000       0.720607        19.6087 
 137   0.0000       0.722497        19.6601 
 138   0.0000       0.729397        19.8479 
 139   0.0000       0.735049        20.0017 
 140   0.0000       0.739016        20.1096 
 141   0.0000       0.746306        20.3080 
 142   0.0000       0.750181        20.4135 
 143   0.0000       0.757613        20.6157 
 144   0.0000       0.761004        20.7080 
 145   0.0000       0.767916        20.8961 
 146   0.0000       0.769429        20.9372 
 147   0.0000       0.773717        21.0539 
 148   0.0000       0.779522        21.2119 
 149   0.0000       0.787964        21.4416 
 150   0.0000       0.791208        21.5299 
 151   0.0000       0.791844        21.5472 
 152   0.0000       0.795749        21.6534 
 153   0.0000       0.797102        21.6903 
 154   0.0000       0.804481        21.8910 
 155   0.0000       0.807942        21.9852 
 156   0.0000       0.811498        22.0820 
 157   0.0000       0.815753        22.1978 
 158   0.0000       0.819404        22.2971 
 159   0.0000       0.824011        22.4225 
 160   0.0000       0.828339        22.5403 
 161   0.0000       0.838667        22.8213 
 162   0.0000       0.845013        22.9940 
 163   0.0000       0.846923        23.0459 
 164   0.0000       0.860283        23.4095 
 165   0.0000       0.863749        23.5038 
 166   0.0000       0.869259        23.6537 
 167   0.0000       0.873753        23.7760 
 168   0.0000       0.890594        24.2343 
 169   0.0000       0.902840        24.5675 
 170   0.0000       0.917514        24.9668 
 171   0.0000       0.922520        25.1031 
 172   0.0000       0.933167        25.3928 
 173   0.0000       0.938554        25.5394 
 174   0.0000       0.961655        26.1680 
 175   0.0000       0.972435        26.4613 
 176   0.0000       0.986793        26.8520 
 177   0.0000       0.994225        27.0542 
 178   0.0000       1.009111        27.4593 
 179   0.0000       1.033638        28.1267 
 180   0.0000       1.046738        28.4832 
 181   0.0000       1.056264        28.7424 
 182   0.0000       1.086825        29.5740 
 183   0.0000       1.103617        30.0309 
 184   0.0000       1.117643        30.4126 
 185   0.0000       1.129051        30.7230 
 186   0.0000       1.145370        31.1671 
 187   0.0000       1.159521        31.5522 
 188   0.0000       1.171724        31.8842 
 189   0.0000       1.197668        32.5902 
 190   0.0000       1.210511        32.9397 
 191   0.0000       1.228097        33.4182 
 192   0.0000       1.236459        33.6458 
 193   0.0000       1.258272        34.2393 
 194   0.0000       1.275453        34.7068 
 195   0.0000       1.299802        35.3694 
 196   0.0000       1.311523        35.6884 
 197   0.0000       1.330042        36.1923 
 198   0.0000       1.349728        36.7280 
 199   0.0000       1.373268        37.3685 
 200   0.0000       1.379547        37.5394 
 201   0.0000       1.413594        38.4658 
 202   0.0000       1.434918        39.0461 
 203   0.0000       1.448900        39.4266 
 204   0.0000       1.472722        40.0748 
 205   0.0000       1.480805        40.2948 
 206   0.0000       1.496618        40.7251 
 207   0.0000       1.505248        40.9599 
 208   0.0000       1.532913        41.7127 
 209   0.0000       1.560628        42.4668 
 210   0.0000       1.578018        42.9400 
 211   0.0000       1.618574        44.0436 
 212   0.0000       1.636106        44.5207 
 213   0.0000       1.638193        44.5775 
 214   0.0000       1.651849        44.9491 
 215   0.0000       1.657353        45.0989 
 216   0.0000       1.664986        45.3066 
 217   0.0000       1.717572        46.7375 
 218   0.0000       1.754660        47.7467 
 219   0.0000       1.768955        48.1357 
 220   0.0000       1.790692        48.7272 
 221   0.0000       1.798165        48.9306 
 222   0.0000       1.807673        49.1893 
 223   0.0000       1.813772        49.3552 
 224   0.0000       1.824229        49.6398 
 225   0.0000       1.834560        49.9209 
 226   0.0000       1.853266        50.4299 
 227   0.0000       1.856628        50.5214 
 228   0.0000       1.865521        50.7634 
 229   0.0000       1.876906        51.0732 
 230   0.0000       1.882678        51.2303 
 231   0.0000       1.883405        51.2500 
 232   0.0000       1.893628        51.5282 
 233   0.0000       1.898587        51.6632 
 234   0.0000       1.904889        51.8347 
 235   0.0000       1.914538        52.0972 
 236   0.0000       1.925192        52.3872 
 237   0.0000       1.926005        52.4093 
 238   0.0000       1.934702        52.6459 
 239   0.0000       1.943992        52.8987 
 240   0.0000       1.953606        53.1603 
 241   0.0000       1.963565        53.4313 
 242   0.0000       1.973570        53.7036 
 243   0.0000       1.984202        53.9929 
 244   0.0000       1.990568        54.1661 
 245   0.0000       1.994273        54.2669 
 246   0.0000       2.001439        54.4619 
 247   0.0000       2.003297        54.5125 
 248   0.0000       2.004469        54.5444 
 249   0.0000       2.015397        54.8417 
 250   0.0000       2.028530        55.1991 
 251   0.0000       2.032566        55.3089 
 252   0.0000       2.060713        56.0749 
 253   0.0000       2.061379        56.0930 
 254   0.0000       2.082055        56.6556 
 255   0.0000       2.094270        56.9880 
 256   0.0000       2.113363        57.5075 
 257   0.0000       2.134078        58.0712 
 258   0.0000       2.142318        58.2954 
 259   0.0000       2.146560        58.4109 
 260   0.0000       2.159406        58.7604 
 261   0.0000       2.176837        59.2348 
 262   0.0000       2.205209        60.0068 
 263   0.0000       2.218048        60.3562 
 264   0.0000       2.229701        60.6732 
 265   0.0000       2.236804        60.8665 
 266   0.0000       2.269716        61.7621 
 267   0.0000       2.283358        62.1333 
 268   0.0000       2.291468        62.3540 
 269   0.0000       2.330802        63.4243 
 270   0.0000       2.341381        63.7122 
 271   0.0000       2.353804        64.0503 
 272   0.0000       2.374426        64.6114 
 273   0.0000       2.378882        64.7327 
 274   0.0000       2.408764        65.5458 
 275   0.0000       2.419122        65.8277 
 276   0.0000       2.429119        66.0997 
 277   0.0000       2.445474        66.5447 
 278   0.0000       2.470804        67.2340 
 279   0.0000       2.482034        67.5396 
 280   0.0000       2.509896        68.2977 
 281   0.0000       2.514562        68.4247 
 282   0.0000       2.521531        68.6143 
 283   0.0000       2.533121        68.9297 
 284   0.0000       2.550256        69.3960 
 285   0.0000       2.556207        69.5579 
 286   0.0000       2.572611        70.0043 
 287   0.0000       2.580986        70.2322 
 288   0.0000       2.606739        70.9330 
 289   0.0000       2.609057        70.9960 
 290   0.0000       2.621609        71.3376 
 291   0.0000       2.654984        72.2458 
 292   0.0000       2.670183        72.6594 
 293   0.0000       2.677947        72.8706 
 294   0.0000       2.704460        73.5921 
 295   0.0000       2.726812        74.2003 
 296   0.0000       2.745077        74.6973 
 297   0.0000       2.758325        75.0578 
 298   0.0000       2.779424        75.6320 
 299   0.0000       2.814880        76.5968 
 300   0.0000       2.861321        77.8605 
 301   0.0000       2.886820        78.5544 
 302   0.0000       2.900928        78.9383 
 303   0.0000       2.937708        79.9391 
 304   0.0000       2.966678        80.7274 
 305   0.0000       2.977253        81.0152 
 306   0.0000       2.995790        81.5196 
 307   0.0000       3.000756        81.6547 
 308   0.0000       3.009765        81.8999 
 309   0.0000       3.049197        82.9729 
 310   0.0000       3.058295        83.2204 
 311   0.0000       3.069676        83.5301 
 312   0.0000       3.101103        84.3853 
 313   0.0000       3.126812        85.0849 
 314   0.0000       3.141386        85.4815 
 315   0.0000       3.162144        86.0463 
 316   0.0000       3.202510        87.1447 
 317   0.0000       3.214030        87.4582 
 318   0.0000       3.234399        88.0125 
 319   0.0000       3.275492        89.1307 
 320   0.0000       3.381950        92.0275 
 321   0.0000       3.430992        93.3620 

                    ********************************
                    * MULLIKEN POPULATION ANALYSIS *
                    ********************************

-----------------------
MULLIKEN ATOMIC CHARGES
-----------------------
   0 S :    0.131936
   1 C :   -0.123790
   2 C :   -0.113858
   3 C :    0.037547
   4 C :   -0.159579
   5 H :    0.003892
   6 C :    0.069945
   7 H :    0.018396
   8 H :    0.030984
   9 C :   -0.078599
  10 H :    0.031626
  11 H :    0.031412
  12 C :   -0.032926
  13 H :    0.026108
  14 H :    0.038002
  15 H :    0.029623
  16 S :    0.124875
  17 C :   -0.116848
  18 C :   -0.047998
  19 C :    0.037419
  20 C :   -0.174634
  21 H :    0.006884
  22 C :   -0.012262
  23 H :    0.028765
  24 H :    0.011005
  25 C :   -0.007036
  26 H :    0.012885
  27 H :    0.019860
  28 C :   -0.055872
  29 H :    0.035063
  30 H :    0.036709
  31 H :    0.041392
  32 H :    0.053421
  33 H :    0.065656
Sum of atomic charges:    0.0000000

--------------------------------
MULLIKEN REDUCED ORBITAL CHARGES
--------------------------------
  0 S s       :     5.837972  s :     5.837972
      pz      :     3.434592  p :     9.914273
      px      :     3.250010
      py      :     3.229671
      dz2     :     0.015081  d :     0.115819
      dxz     :     0.027586
      dyz     :     0.020740
      dx2y2   :     0.035796
      dxy     :     0.016616
  1 C s       :     3.162643  s :     3.162643
      pz      :     1.015123  p :     2.925833
      px      :     1.009946
      py      :     0.900764
      dz2     :     0.008388  d :     0.035314
      dxz     :     0.006252
      dyz     :     0.006611
      dx2y2   :     0.007535
      dxy     :     0.006528
  2 C s       :     3.101238  s :     3.101238
      pz      :     0.968560  p :     2.968581
      px      :     0.983175
      py      :     1.016846
      dz2     :     0.011054  d :     0.044039
      dxz     :     0.008227
      dyz     :     0.007384
      dx2y2   :     0.008321
      dxy     :     0.009053
  3 C s       :     3.181509  s :     3.181509
      pz      :     0.948831  p :     2.746562
      px      :     0.882033
      py      :     0.915698
      dz2     :     0.004471  d :     0.034382
      dxz     :     0.006945
      dyz     :     0.006064
      dx2y2   :     0.009494
      dxy     :     0.007407
  4 C s       :     3.065509  s :     3.065509
      pz      :     1.024955  p :     3.050222
      px      :     1.006520
      py      :     1.018747
      dz2     :     0.008442  d :     0.043848
      dxz     :     0.008576
      dyz     :     0.005825
      dx2y2   :     0.011932
      dxy     :     0.009073
  5 H s       :     0.971182  s :     0.971182
      pz      :     0.009884  p :     0.024926
      px      :     0.010396
      py      :     0.004647
  6 C s       :     2.973677  s :     2.973677
      pz      :     0.998560  p :     2.920371
      px      :     0.992021
      py      :     0.929790
      dz2     :     0.009456  d :     0.036007
      dxz     :     0.002922
      dyz     :     0.007178
      dx2y2   :     0.010134
      dxy     :     0.006317
  7 H s       :     0.959322  s :     0.959322
      pz      :     0.005024  p :     0.022282
      px      :     0.013325
      py      :     0.003933
  8 H s       :     0.946311  s :     0.946311
      pz      :     0.013764  p :     0.022705
      px      :     0.004683
      py      :     0.004259
  9 C s       :     3.046594  s :     3.046594
      pz      :     1.001578  p :     2.993973
      px      :     1.013869
      py      :     0.978527
      dz2     :     0.008279  d :     0.038031
      dxz     :     0.005225
      dyz     :     0.010473
      dx2y2   :     0.007894
      dxy     :     0.006161
 10 H s       :     0.946661  s :     0.946661
      pz      :     0.004117  p :     0.021713
      px      :     0.013141
      py      :     0.004456
 11 H s       :     0.947106  s :     0.947106
      pz      :     0.007702  p :     0.021482
      px      :     0.005131
      py      :     0.008649
 12 C s       :     2.998205  s :     2.998205
      pz      :     0.968243  p :     3.005878
      px      :     0.999966
      py      :     1.037669
      dz2     :     0.008098  d :     0.028843
      dxz     :     0.003092
      dyz     :     0.008076
      dx2y2   :     0.004403
      dxy     :     0.005173
 13 H s       :     0.951023  s :     0.951023
      pz      :     0.004270  p :     0.022869
      px      :     0.013265
      py      :     0.005333
 14 H s       :     0.936211  s :     0.936211
      pz      :     0.009973  p :     0.025787
      px      :     0.005875
      py      :     0.009940
 15 H s       :     0.946537  s :     0.946537
      pz      :     0.004880  p :     0.023839
      px      :     0.007790
      py      :     0.011169
 16 S s       :     5.838397  s :     5.838397
      pz      :     3.312112  p :     9.921498
      px      :     3.291411
      py      :     3.317974
      dz2     :     0.021458  d :     0.115231
      dxz     :     0.026908
      dyz     :     0.021734
      dx2y2   :     0.026670
      dxy     :     0.018461
 17 C s       :     3.145883  s :     3.145883
      pz      :     0.988793  p :     2.935270
      px      :     0.976360
      py      :     0.970117
      dz2     :     0.007436  d :     0.035695
      dxz     :     0.009734
      dyz     :     0.008224
      dx2y2   :     0.005402
      dxy     :     0.004898
 18 C s       :     3.192858  s :     3.192858
      pz      :     0.918709  p :     2.820840
      px      :     0.969601
      py      :     0.932531
      dz2     :     0.010017  d :     0.034299
      dxz     :     0.006696
      dyz     :     0.007384
      dx2y2   :     0.004813
      dxy     :     0.005389
 19 C s       :     3.053798  s :     3.053798
      pz      :     0.934252  p :     2.865452
      px      :     0.956727
      py      :     0.974473
      dz2     :     0.009868  d :     0.043332
      dxz     :     0.010406
      dyz     :     0.010068
      dx2y2   :     0.007915
      dxy     :     0.005074
 20 C s       :     3.074926  s :     3.074926
      pz      :     0.937727  p :     3.057011
      px      :     1.044226
      py      :     1.075059
      dz2     :     0.009469  d :     0.042697
      dxz     :     0.011571
      dyz     :     0.008446
      dx2y2   :     0.006787
      dxy     :     0.006423
 21 H s       :     0.967142  s :     0.967142
      pz      :     0.006243  p :     0.025974
      px      :     0.007815
      py      :     0.011916
 22 C s       :     2.992116  s :     2.992116
      pz      :     0.933784  p :     2.984532
      px      :     1.033751
      py      :     1.016997
      dz2     :     0.010752  d :     0.035614
      dxz     :     0.005890
      dyz     :     0.007465
      dx2y2   :     0.009739
      dxy     :     0.001768
 23 H s       :     0.948914  s :     0.948914
      pz      :     0.003462  p :     0.022321
      px      :     0.013997
      py      :     0.004862
 24 H s       :     0.965629  s :     0.965629
      pz      :     0.004592  p :     0.023366
      px      :     0.005775
      py      :     0.012999
 25 C s       :     3.016410  s :     3.016410
      pz      :     0.941051  p :     2.954106
      px      :     1.007059
      py      :     1.005996
      dz2     :     0.008107  d :     0.036520
      dxz     :     0.006309
      dyz     :     0.007956
      dx2y2   :     0.011704
      dxy     :     0.002445
 26 H s       :     0.961438  s :     0.961438
      pz      :     0.004799  p :     0.025678
      px      :     0.014914
      py      :     0.005965
 27 H s       :     0.958068  s :     0.958068
      pz      :     0.004698  p :     0.022072
      px      :     0.004573
      py      :     0.012801
 28 C s       :     3.026921  s :     3.026921
      pz      :     0.989285  p :     3.001413
      px      :     0.997079
      py      :     1.015049
      dz2     :     0.003978  d :     0.027539
      dxz     :     0.004986
      dyz     :     0.008411
      dx2y2   :     0.008473
      dxy     :     0.001691
 29 H s       :     0.940494  s :     0.940494
      pz      :     0.006462  p :     0.024443
      px      :     0.005015
      py      :     0.012965
 30 H s       :     0.939758  s :     0.939758
      pz      :     0.008665  p :     0.023533
      px      :     0.005313
      py      :     0.009555
 31 H s       :     0.935745  s :     0.935745
      pz      :     0.004630  p :     0.022864
      px      :     0.013271
      py      :     0.004963
 32 H s       :     0.923203  s :     0.923203
      pz      :     0.004874  p :     0.023376
      px      :     0.012362
      py      :     0.006140
 33 H s       :     0.910890  s :     0.910890
      pz      :     0.005625  p :     0.023454
      px      :     0.011712
      py      :     0.006116


                     *******************************
                     * LOEWDIN POPULATION ANALYSIS *
                     *******************************

----------------------
LOEWDIN ATOMIC CHARGES
----------------------
   0 S :    0.432868
   1 C :   -0.214956
   2 C :   -0.064138
   3 C :   -0.049917
   4 C :   -0.205893
   5 H :    0.021636
   6 C :   -0.031207
   7 H :    0.029666
   8 H :    0.030929
   9 C :   -0.046797
  10 H :    0.025063
  11 H :    0.027998
  12 C :   -0.062696
  13 H :    0.029196
  14 H :    0.021029
  15 H :    0.027140
  16 S :    0.433649
  17 C :   -0.211857
  18 C :   -0.072999
  19 C :   -0.054540
  20 C :   -0.200210
  21 H :    0.024784
  22 C :   -0.044449
  23 H :    0.035428
  24 H :    0.028633
  25 C :   -0.028422
  26 H :    0.012171
  27 H :    0.023305
  28 C :   -0.060032
  29 H :    0.021768
  30 H :    0.030001
  31 H :    0.031767
  32 H :    0.029652
  33 H :    0.031427

-------------------------------
LOEWDIN REDUCED ORBITAL CHARGES
-------------------------------
  0 S s       :     5.483813  s :     5.483813
      pz      :     3.448518  p :     9.938420
      px      :     3.239464
      py      :     3.250437
      dz2     :     0.017373  d :     0.144900
      dxz     :     0.035710
      dyz     :     0.024768
      dx2y2   :     0.045884
      dxy     :     0.021165
  1 C s       :     2.929342  s :     2.929342
      pz      :     1.086958  p :     3.200788
      px      :     1.077843
      py      :     1.035987
      dz2     :     0.019505  d :     0.084825
      dxz     :     0.015989
      dyz     :     0.016444
      dx2y2   :     0.017853
      dxy     :     0.015034
  2 C s       :     2.866452  s :     2.866452
      pz      :     1.034551  p :     3.089278
      px      :     1.041534
      py      :     1.013193
      dz2     :     0.026134  d :     0.108408
      dxz     :     0.020713
      dyz     :     0.018713
      dx2y2   :     0.019985
      dxy     :     0.022862
  3 C s       :     2.863705  s :     2.863705
      pz      :     1.027536  p :     3.094852
      px      :     1.039630
      py      :     1.027686
      dz2     :     0.010745  d :     0.091360
      dxz     :     0.017268
      dyz     :     0.016978
      dx2y2   :     0.025843
      dxy     :     0.020526
  4 C s       :     2.913049  s :     2.913049
      pz      :     1.071983  p :     3.189457
      px      :     1.034903
      py      :     1.082570
      dz2     :     0.018657  d :     0.103387
      dxz     :     0.019737
      dyz     :     0.015102
      dx2y2   :     0.028125
      dxy     :     0.021766
  5 H s       :     0.903267  s :     0.903267
      pz      :     0.029498  p :     0.075097
      px      :     0.030219
      py      :     0.015380
  6 C s       :     2.828297  s :     2.828297
      pz      :     1.047126  p :     3.111849
      px      :     1.047058
      py      :     1.017666
      dz2     :     0.024570  d :     0.091060
      dxz     :     0.006792
      dyz     :     0.018137
      dx2y2   :     0.024526
      dxy     :     0.017036
  7 H s       :     0.906079  s :     0.906079
      pz      :     0.013855  p :     0.064255
      px      :     0.037769
      py      :     0.012631
  8 H s       :     0.901943  s :     0.901943
      pz      :     0.039440  p :     0.067128
      px      :     0.013303
      py      :     0.014386
  9 C s       :     2.835606  s :     2.835606
      pz      :     1.034345  p :     3.118651
      px      :     1.053012
      py      :     1.031294
      dz2     :     0.021190  d :     0.092540
      dxz     :     0.011078
      dyz     :     0.025125
      dx2y2   :     0.019425
      dxy     :     0.015721
 10 H s       :     0.911653  s :     0.911653
      pz      :     0.013171  p :     0.063285
      px      :     0.036858
      py      :     0.013256
 11 H s       :     0.909527  s :     0.909527
      pz      :     0.023412  p :     0.062475
      px      :     0.013767
      py      :     0.025296
 12 C s       :     2.824095  s :     2.824095
      pz      :     1.032783  p :     3.164352
      px      :     1.055304
      py      :     1.076265
      dz2     :     0.021816  d :     0.074250
      dxz     :     0.006831
      dyz     :     0.020862
      dx2y2   :     0.011343
      dxy     :     0.013397
 13 H s       :     0.908112  s :     0.908112
      pz      :     0.011991  p :     0.062692
      px      :     0.036605
      py      :     0.014096
 14 H s       :     0.904849  s :     0.904849
      pz      :     0.030535  p :     0.074122
      px      :     0.015985
      py      :     0.027603
 15 H s       :     0.906253  s :     0.906253
      pz      :     0.014875  p :     0.066606
      px      :     0.021415
      py      :     0.030317
 16 S s       :     5.487687  s :     5.487687
      pz      :     3.345231  p :     9.934792
      px      :     3.275557
      py      :     3.314004
      dz2     :     0.024972  d :     0.143873
      dxz     :     0.034588
      dyz     :     0.026634
      dx2y2   :     0.032606
      dxy     :     0.025072
 17 C s       :     2.938443  s :     2.938443
      pz      :     1.084218  p :     3.190357
      px      :     1.059571
      py      :     1.046568
      dz2     :     0.021272  d :     0.083057
      dxz     :     0.022236
      dyz     :     0.017953
      dx2y2   :     0.010852
      dxy     :     0.010744
 18 C s       :     2.867183  s :     2.867183
      pz      :     1.050537  p :     3.116703
      px      :     1.033704
      py      :     1.032463
      dz2     :     0.029869  d :     0.089113
      dxz     :     0.016564
      dyz     :     0.018666
      dx2y2   :     0.010092
      dxy     :     0.013921
 19 C s       :     2.858121  s :     2.858121
      pz      :     1.046899  p :     3.087613
      px      :     1.020900
      py      :     1.019814
      dz2     :     0.026747  d :     0.108806
      dxz     :     0.026358
      dyz     :     0.025299
      dx2y2   :     0.016466
      dxy     :     0.013935
 20 C s       :     2.911529  s :     2.911529
      pz      :     1.029333  p :     3.186426
      px      :     1.067668
      py      :     1.089425
      dz2     :     0.024334  d :     0.102255
      dxz     :     0.027394
      dyz     :     0.020766
      dx2y2   :     0.014079
      dxy     :     0.015681
 21 H s       :     0.896943  s :     0.896943
      pz      :     0.018901  p :     0.078273
      px      :     0.024393
      py      :     0.034979
 22 C s       :     2.836159  s :     2.836159
      pz      :     1.003878  p :     3.120317
      px      :     1.058009
      py      :     1.058431
      dz2     :     0.027421  d :     0.087972
      dxz     :     0.013559
      dyz     :     0.019421
      dx2y2   :     0.023904
      dxy     :     0.003667
 23 H s       :     0.901494  s :     0.901494
      pz      :     0.010968  p :     0.063078
      px      :     0.038803
      py      :     0.013307
 24 H s       :     0.903888  s :     0.903888
      pz      :     0.014731  p :     0.067479
      px      :     0.015492
      py      :     0.037255
 25 C s       :     2.825834  s :     2.825834
      pz      :     1.005288  p :     3.113928
      px      :     1.064250
      py      :     1.044390
      dz2     :     0.018745  d :     0.088661
      dxz     :     0.016534
      dyz     :     0.019257
      dx2y2   :     0.028458
      dxy     :     0.005667
 26 H s       :     0.907417  s :     0.907417
      pz      :     0.017880  p :     0.080412
      px      :     0.043898
      py      :     0.018634
 27 H s       :     0.913440  s :     0.913440
      pz      :     0.014873  p :     0.063254
      px      :     0.012180
      py      :     0.036202
 28 C s       :     2.836881  s :     2.836881
      pz      :     1.036545  p :     3.153598
      px      :     1.046800
      py      :     1.070253
      dz2     :     0.009699  d :     0.069553
      dxz     :     0.013727
      dyz     :     0.020526
      dx2y2   :     0.021676
      dxy     :     0.003925
 29 H s       :     0.908032  s :     0.908032
      pz      :     0.019428  p :     0.070199
      px      :     0.014187
      py      :     0.036584
 30 H s       :     0.904252  s :     0.904252
      pz      :     0.025292  p :     0.065747
      px      :     0.014486
      py      :     0.025968
 31 H s       :     0.904866  s :     0.904866
      pz      :     0.013495  p :     0.063367
      px      :     0.037733
      py      :     0.012139
 32 H s       :     0.897265  s :     0.897265
      pz      :     0.015354  p :     0.073083
      px      :     0.036945
      py      :     0.020783
 33 H s       :     0.894152  s :     0.894152
      pz      :     0.018063  p :     0.074421
      px      :     0.036010
      py      :     0.020348


                      *****************************
                      * MAYER POPULATION ANALYSIS *
                      *****************************

  NA   - Mulliken gross atomic population
  ZA   - Total nuclear charge
  QA   - Mulliken gross atomic charge
  VA   - Mayer's total valence
  BVA  - Mayer's bonded valence
  FA   - Mayer's free valence

  ATOM       NA         ZA         QA         VA         BVA        FA
  0 S     15.8681    16.0000     0.1319     2.5216     2.5216     0.0000
  1 C      6.1238     6.0000    -0.1238     3.8513     3.8513    -0.0000
  2 C      6.1139     6.0000    -0.1139     3.9963     3.9963     0.0000
  3 C      5.9625     6.0000     0.0375     3.9181     3.9181     0.0000
  4 C      6.1596     6.0000    -0.1596     3.9063     3.9063     0.0000
  5 H      0.9961     1.0000     0.0039     1.0083     1.0083    -0.0000
  6 C      5.9301     6.0000     0.0699     3.9792     3.9792     0.0000
  7 H      0.9816     1.0000     0.0184     0.9914     0.9914     0.0000
  8 H      0.9690     1.0000     0.0310     0.9830     0.9830     0.0000
  9 C      6.0786     6.0000    -0.0786     4.0693     4.0693     0.0000
 10 H      0.9684     1.0000     0.0316     0.9820     0.9820     0.0000
 11 H      0.9686     1.0000     0.0314     0.9740     0.9740    -0.0000
 12 C      6.0329     6.0000    -0.0329     3.9878     3.9878    -0.0000
 13 H      0.9739     1.0000     0.0261     0.9902     0.9902    -0.0000
 14 H      0.9620     1.0000     0.0380     1.0013     1.0013     0.0000
 15 H      0.9704     1.0000     0.0296     0.9877     0.9877     0.0000
 16 S     15.8751    16.0000     0.1249     2.5418     2.5418     0.0000
 17 C      6.1168     6.0000    -0.1168     3.8540     3.8540     0.0000
 18 C      6.0480     6.0000    -0.0480     3.9611     3.9611    -0.0000
 19 C      5.9626     6.0000     0.0374     3.9479     3.9479     0.0000
 20 C      6.1746     6.0000    -0.1746     3.9235     3.9235     0.0000
 21 H      0.9931     1.0000     0.0069     1.0000     1.0000     0.0000
 22 C      6.0123     6.0000    -0.0123     3.9720     3.9720    -0.0000
 23 H      0.9712     1.0000     0.0288     0.9894     0.9894    -0.0000
 24 H      0.9890     1.0000     0.0110     0.9860     0.9860    -0.0000
 25 C      6.0070     6.0000    -0.0070     4.0550     4.0550    -0.0000
 26 H      0.9871     1.0000     0.0129     0.9817     0.9817    -0.0000
 27 H      0.9801     1.0000     0.0199     0.9886     0.9886    -0.0000
 28 C      6.0559     6.0000    -0.0559     4.0096     4.0096    -0.0000
 29 H      0.9649     1.0000     0.0351     0.9892     0.9892    -0.0000
 30 H      0.9633     1.0000     0.0367     0.9843     0.9843    -0.0000
 31 H      0.9586     1.0000     0.0414     0.9914     0.9914    -0.0000
 32 H      0.9466     1.0000     0.0534     1.0044     1.0044     0.0000
 33 H      0.9343     1.0000     0.0657     0.9921     0.9921    -0.0000

  Mayer bond orders larger than 0.100000
B(  0-S ,  1-C ) :   1.1682 B(  0-S ,  4-C ) :   1.1607 B(  1-C ,  2-C ) :   1.5758 
B(  1-C , 32-H ) :   0.9595 B(  2-C ,  3-C ) :   1.2676 B(  2-C ,  6-C ) :   1.0257 
B(  3-C ,  4-C ) :   1.5439 B(  3-C ,  5-H ) :   0.9904 B(  4-C , 20-C ) :   1.0481 
B(  6-C ,  7-H ) :   0.9410 B(  6-C ,  8-H ) :   0.9360 B(  6-C ,  9-C ) :   1.0794 
B(  9-C , 10-H ) :   0.9529 B(  9-C , 11-H ) :   0.9518 B(  9-C , 12-C ) :   1.0719 
B( 12-C , 13-H ) :   0.9725 B( 12-C , 14-H ) :   0.9755 B( 12-C , 15-H ) :   0.9710 
B( 16-S , 17-C ) :   1.1918 B( 16-S , 20-C ) :   1.1606 B( 17-C , 18-C ) :   1.5730 
B( 17-C , 20-C ) :   0.1055 B( 17-C , 33-H ) :   0.9633 B( 18-C , 19-C ) :   1.2567 
B( 18-C , 21-H ) :   1.0008 B( 19-C , 20-C ) :   1.5579 B( 19-C , 22-C ) :   1.0309 
B( 22-C , 23-H ) :   0.9362 B( 22-C , 24-H ) :   0.9408 B( 22-C , 25-C ) :   1.0580 
B( 25-C , 26-H ) :   0.9514 B( 25-C , 27-H ) :   0.9531 B( 25-C , 28-C ) :   1.0756 
B( 28-C , 29-H ) :   0.9777 B( 28-C , 30-H ) :   0.9742 B( 28-C , 31-H ) :   0.9748 


-------
TIMINGS
-------

Total SCF time: 0 days 0 hours 0 min 33 sec 

Total time                  ....      33.622 sec
Sum of individual times     ....      32.228 sec  ( 95.9%)

Fock matrix formation       ....      30.021 sec  ( 89.3%)
  XC integration            ....       1.919 sec  (  6.4% of F)
    Basis function eval.    ....       0.223 sec  ( 11.6% of XC)
    Density eval.           ....       0.163 sec  (  8.5% of XC)
    XC-Functional eval.     ....       0.200 sec  ( 10.4% of XC)
    XC-Potential eval.      ....       0.189 sec  (  9.8% of XC)
Diagonalization             ....       0.165 sec  (  0.5%)
Density matrix formation    ....       0.022 sec  (  0.1%)
Population analysis         ....       0.082 sec  (  0.2%)
Initial guess               ....       0.325 sec  (  1.0%)
Orbital Transformation      ....       0.000 sec  (  0.0%)
Orbital Orthonormalization  ....       0.000 sec  (  0.0%)
DIIS solution               ....       0.145 sec  (  0.4%)
SOSCF solution              ....       0.129 sec  (  0.4%)
Grid generation             ....       1.339 sec  (  4.0%)


-------------------------------------------------------------------------------
                          DFT DISPERSION CORRECTION                            
                                                                               
                              DFTD3 V3.1  Rev 1                                
                              USING zero damping                               
-------------------------------------------------------------------------------
The omegaB97X-D3 functional is recognized. Fit by Chai et al.
Active option DFTDOPT                   ...         3   

molecular C6(AA) [au] = 14174.755955 


            DFT-D V3
 parameters
 s6 scaling factor         :     1.0000 
 rs6 scaling factor        :     1.2810 
 s8 scaling factor         :     1.0000 
 rs8 scaling factor        :     1.0940 
 Damping factor alpha6     :    14.0000 
 Damping factor alpha8     :    16.0000 
 ad hoc parameters k1-k3   :    16.0000     1.3333    -4.0000 

 Edisp/kcal,au: -9.013830927894  -0.014364452393 
 E6   /kcal   :  -4.137590689 
 E8   /kcal   :  -4.876240239 
 % E8         :  54.097311989 

-------------------------   ----------------
Dispersion correction           -0.014364452
-------------------------   ----------------


-------------------------   --------------------
FINAL SINGLE POINT ENERGY     -1339.877385085725
-------------------------   --------------------


                            ***************************************
                            *     ORCA property calculations      *
                            ***************************************

                                    ---------------------
                                    Active property flags
                                    ---------------------
   (+) Dipole Moment


------------------------------------------------------------------------------
                       ORCA ELECTRIC PROPERTIES CALCULATION
------------------------------------------------------------------------------

Dipole Moment Calculation                       ... on
Quadrupole Moment Calculation                   ... off
Polarizability Calculation                      ... off
GBWName                                         ... config_9847.gbw
Electron density file                           ... config_9847.scfp
The origin for moment calculation is the CENTER OF MASS  = (-62.523914, 127.652264 268.944664)

-------------
DIPOLE MOMENT
-------------
                                X             Y             Z
Electronic contribution:     -2.95631     -14.03550     -21.82561
Nuclear contribution   :      2.88436      14.27840      22.37860
                        -----------------------------------------
Total Dipole Moment    :     -0.07195       0.24290       0.55299
                        -----------------------------------------
Magnitude (a.u.)       :      0.60826
Magnitude (Debye)      :      1.54607



--------------------
Rotational spectrum 
--------------------
 
Rotational constants in cm-1:     0.017476     0.009102     0.006901 
Rotational constants in MHz :   523.931043   272.872065   206.874385 

 Dipole components along the rotational axes: 
x,y,z [a.u.] :     0.119738     0.568306     0.180749 
x,y,z [Debye]:     0.304349     1.444518     0.459427 

 

Timings for individual modules:

Sum of individual times         ...       34.890 sec (=   0.581 min)
GTO integral calculation        ...        0.892 sec (=   0.015 min)   2.6 %
SCF iterations                  ...       33.998 sec (=   0.567 min)  97.4 %
                             ****ORCA TERMINATED NORMALLY****
TOTAL RUN TIME: 0 days 0 hours 0 minutes 35 seconds 902 msec
