
                                 *****************
                                 * O   R   C   A *
                                 *****************

           --- An Ab Initio, DFT and Semiempirical electronic structure package ---

                  #######################################################
                  #                        -***-                        #
                  #          Department of theory and spectroscopy      #
                  #               Directorship: Frank Neese             #
                  #        Max Planck Institute fuer Kohlenforschung    #
                  #                Kaiser Wilhelm Platz 1               #
                  #                 D-45470 Muelheim/Ruhr               #
                  #                      Germany                        #
                  #                                                     #
                  #                  All rights reserved                #
                  #                        -***-                        #
                  #######################################################


                         Program Version 4.2.1 -  RELEASE  -


 With contributions from (in alphabetic order):
   Daniel Aravena         : Magnetic Suceptibility
   Michael Atanasov       : Ab Initio Ligand Field Theory (pilot matlab implementation)
   Alexander A. Auer      : GIAO ZORA, VPT2
   Ute Becker             : Parallelization
   Giovanni Bistoni       : ED, misc. LED, open-shell LED, HFLD
   Martin Brehm           : Molecular dynamics
   Dmytro Bykov           : SCF Hessian
   Vijay G. Chilkuri      : MRCI spin determinant printing, contributions to CSF-ICE
   Dipayan Datta          : RHF DLPNO-CCSD density
   Achintya Kumar Dutta   : EOM-CC, STEOM-CC
   Dmitry Ganyushin       : Spin-Orbit,Spin-Spin,Magnetic field MRCI
   Miquel Garcia          : C-PCM Hessian, Gaussian charge scheme
   Yang Guo               : DLPNO-NEVPT2, CIM, IAO-localization
   Andreas Hansen         : Spin unrestricted coupled pair/coupled cluster methods
   Benjamin Helmich-Paris : CASSCF linear response (MC-RPA)
   Lee Huntington         : MR-EOM, pCC
   Robert Izsak           : Overlap fitted RIJCOSX, COSX-SCS-MP3, EOM
   Christian Kollmar      : KDIIS, OOCD, Brueckner-CCSD(T), CCSD density
   Simone Kossmann        : Meta GGA functionals, TD-DFT gradient, OOMP2, MP2 Hessian
   Martin Krupicka        : AUTO-CI
   Lucas Lang             : DCDCAS
   Dagmar Lenk            : GEPOL surface, SMD
   Dimitrios Liakos       : Extrapolation schemes; Compound Job, initial MDCI parallelization
   Dimitrios Manganas     : Further ROCIS development; embedding schemes
   Dimitrios Pantazis     : SARC Basis sets
   Taras Petrenko         : DFT Hessian,TD-DFT gradient, ASA, ECA, R-Raman, ABS, FL, XAS/XES, NRVS
   Peter Pinski           : DLPNO-MP2, DLPNO-MP2 Gradient
   Christoph Reimann      : Effective Core Potentials
   Marius Retegan         : Local ZFS, SOC
   Christoph Riplinger    : Optimizer, TS searches, QM/MM, DLPNO-CCSD(T), (RO)-DLPNO pert. Triples
   Tobias Risthaus        : Range-separated hybrids, TD-DFT gradient, RPA, STAB
   Michael Roemelt        : Original ROCIS implementation
   Masaaki Saitow         : Open-shell DLPNO-CCSD energy and density
   Barbara Sandhoefer     : DKH picture change effects
   Avijit Sen             : IP-ROCIS
   Kantharuban Sivalingam : CASSCF convergence, NEVPT2, FIC-MRCI
   Bernardo de Souza      : ESD, SOC TD-DFT
   Georgi Stoychev        : AutoAux, RI-MP2 NMR
   Willem Van den Heuvel  : Paramagnetic NMR
   Boris Wezisla          : Elementary symmetry handling
   Frank Wennmohs         : Technical directorship


 We gratefully acknowledge several colleagues who have allowed us to
 interface, adapt or use parts of their codes:
   Stefan Grimme, W. Hujo, H. Kruse,             : VdW corrections, initial TS optimization,
                  C. Bannwarth                     DFT functionals, gCP, sTDA/sTD-DF
   Ed Valeev, F. Pavosevic, A. Kumar             : LibInt (2-el integral package), F12 methods
   Garnet Chan, S. Sharma, J. Yang, R. Olivares  : DMRG
   Ulf Ekstrom                                   : XCFun DFT Library
   Mihaly Kallay                                 : mrcc  (arbitrary order and MRCC methods)
   Andreas Klamt, Michael Diedenhofen            : otool_cosmo (COSMO solvation model)
   Jiri Pittner, Ondrej Demel                    : Mk-CCSD
   Frank Weinhold                                : gennbo (NPA and NBO analysis)
   Christopher J. Cramer and Donald G. Truhlar   : smd solvation model
   Lars Goerigk                                  : TD-DFT with DH, B97 family of functionals
   V. Asgeirsson, H. Jonsson                     : NEB implementation
   FAccTs GmbH                                   : IRC, NEB, NEB-TS, Multilevel, MM, QM/MM, CI optimization
   S Lehtola, MJT Oliveira, MAL Marques          : LibXC Library


 Your calculation uses the libint2 library for the computation of 2-el integrals
 For citations please refer to: http://libint.valeyev.net

 Your ORCA version has been built with support for libXC version: 4.2.3
 For citations please refer to: https://tddft.org/programs/libxc/

 This ORCA versions uses:
   CBLAS   interface :  Fast vector & matrix operations
   LAPACKE interface :  Fast linear algebra routines
   SCALAPACK package :  Parallel linear algebra routines


Your calculation utilizes the atom-pairwise dispersion correction
with the zero-damping scheme (D30)
Cite in your paper:
S.Grimme, J.Antony, S.Ehrlich and H.Krieg, J.Chem.Phys., 132, (2010), 154104 
   

XCFun DFT library Copyright 2009-2010 Ulf Ekstrom and contributors.
See http://admol.org/xcfun for more information. This is free soft-
ware; see the source code for copying conditions. There is ABSOLUTELY
NO WARRANTY; not even for MERCHANTABILITY or FITNESS FOR A PARTICULAR
PURPOSE. For details see the documentation. Scientific users of this 
library should cite U. Ekstrom, L. Visscher, R. Bast, A. J. Thorvald-
sen and K. Ruud; J.Chem.Theor.Comp. 2010, DOI: 10.1021/ct100117s
XCFun Version 0.99 
----- Orbital basis set information -----
Your calculation utilizes the basis: def2-SVP
   F. Weigend and R. Ahlrichs, Phys. Chem. Chem. Phys. 7, 3297 (2005).

================================================================================
                                        WARNINGS
                       Please study these warnings very carefully!
================================================================================


INFO   : the flag for use of LIBINT has been found!

================================================================================
                                       INPUT FILE
================================================================================
NAME = config_6661.inp
|  1> ! wB97X-D3 SP def2-SVP
|  2> %pal
|  3> nprocs 16
|  4> end
|  5> 
|  6> * xyz 0 1
|  7> S 	 -39.4235 	 15.2062 	 79.6925 	 
|  8> C 	 -37.8965 	 15.1361 	 78.7954 	 
|  9> C 	 -38.1203 	 14.6775 	 77.4931 	 
| 10> C 	 -39.4881 	 14.3522 	 77.2548 	 
| 11> C 	 -40.3106 	 14.4392 	 78.3806 	 
| 12> H 	 -39.8434 	 14.0394 	 76.2634 	 
| 13> C 	 -37.033 	 14.5746 	 76.4287 	 
| 14> H 	 -37.5074 	 14.3617 	 75.4246 	 
| 15> H 	 -36.4176 	 13.7016 	 76.6854 	 
| 16> C 	 -36.0029 	 15.7325 	 76.3524 	 
| 17> H 	 -35.6082 	 15.9492 	 77.336 	 
| 18> H 	 -35.136 	 15.4587 	 75.8502 	 
| 19> C 	 -36.4157 	 17.1482 	 75.8006 	 
| 20> H 	 -37.4279 	 17.2547 	 76.1847 	 
| 21> H 	 -35.7548 	 17.8515 	 76.3295 	 
| 22> H 	 -36.289 	 17.113 	 74.7207 	 
| 23> S 	 -42.5172 	 15.566 	 79.3437 	 
| 24> C 	 -44.0356 	 15.0005 	 78.8364 	 
| 25> C 	 -44.017 	 13.7687 	 78.256 	 
| 26> C 	 -42.6848 	 13.3431 	 78.0643 	 
| 27> C 	 -41.7369 	 14.3183 	 78.4805 	 
| 28> H 	 -44.9712 	 13.3764 	 78.096 	 
| 29> C 	 -42.321 	 12.025 	 77.4633 	 
| 30> H 	 -41.4906 	 12.2366 	 76.8221 	 
| 31> H 	 -43.1549 	 11.6263 	 76.8567 	 
| 32> C 	 -41.8891 	 10.9123 	 78.478 	 
| 33> H 	 -41.004 	 11.2597 	 79.0214 	 
| 34> H 	 -41.5252 	 10.0119 	 77.8354 	 
| 35> C 	 -43.0028 	 10.389 	 79.3605 	 
| 36> H 	 -43.4481 	 11.249 	 80.0427 	 
| 37> H 	 -42.6453 	 9.62137 	 80.0536 	 
| 38> H 	 -43.832 	 9.93132 	 78.7379 	 
| 39> H 	 -37.007 	 15.6118 	 79.0118 	 
| 40> H 	 -44.921 	 15.5914 	 79.0392 	 
| 41> *
| 42> 
| 43>                          ****END OF INPUT****
================================================================================

                       ****************************
                       * Single Point Calculation *
                       ****************************

---------------------------------
CARTESIAN COORDINATES (ANGSTROEM)
---------------------------------
  S    -39.423500   15.206200   79.692500
  C    -37.896500   15.136100   78.795400
  C    -38.120300   14.677500   77.493100
  C    -39.488100   14.352200   77.254800
  C    -40.310600   14.439200   78.380600
  H    -39.843400   14.039400   76.263400
  C    -37.033000   14.574600   76.428700
  H    -37.507400   14.361700   75.424600
  H    -36.417600   13.701600   76.685400
  C    -36.002900   15.732500   76.352400
  H    -35.608200   15.949200   77.336000
  H    -35.136000   15.458700   75.850200
  C    -36.415700   17.148200   75.800600
  H    -37.427900   17.254700   76.184700
  H    -35.754800   17.851500   76.329500
  H    -36.289000   17.113000   74.720700
  S    -42.517200   15.566000   79.343700
  C    -44.035600   15.000500   78.836400
  C    -44.017000   13.768700   78.256000
  C    -42.684800   13.343100   78.064300
  C    -41.736900   14.318300   78.480500
  H    -44.971200   13.376400   78.096000
  C    -42.321000   12.025000   77.463300
  H    -41.490600   12.236600   76.822100
  H    -43.154900   11.626300   76.856700
  C    -41.889100   10.912300   78.478000
  H    -41.004000   11.259700   79.021400
  H    -41.525200   10.011900   77.835400
  C    -43.002800   10.389000   79.360500
  H    -43.448100   11.249000   80.042700
  H    -42.645300    9.621370   80.053600
  H    -43.832000    9.931320   78.737900
  H    -37.007000   15.611800   79.011800
  H    -44.921000   15.591400   79.039200

----------------------------
CARTESIAN COORDINATES (A.U.)
----------------------------
  NO LB      ZA    FRAG     MASS         X           Y           Z
   0 S    16.0000    0    32.060  -74.499618   28.735554  150.597000
   1 C     6.0000    0    12.011  -71.614006   28.603084  148.901727
   2 C     6.0000    0    12.011  -72.036927   27.736455  146.440736
   3 C     6.0000    0    12.011  -74.621695   27.121727  145.990415
   4 C     6.0000    0    12.011  -76.175994   27.286134  148.117868
   5 H     1.0000    0     1.008  -75.293114   26.530621  144.116940
   6 C     6.0000    0    12.011  -69.982228   27.542003  144.429312
   7 H     1.0000    0     1.008  -70.878714   27.139680  142.531838
   8 H     1.0000    0     1.008  -68.819290   25.892272  144.914404
   9 C     6.0000    0    12.011  -68.035621   29.730116  144.285126
  10 H     1.0000    0     1.008  -67.289746   30.139620  146.143860
  11 H     1.0000    0     1.008  -66.397417   29.212709  143.336105
  12 C     6.0000    0    12.011  -68.815700   32.405402  143.242375
  13 H     1.0000    0     1.008  -70.728481   32.606658  143.968219
  14 H     1.0000    0     1.008  -67.566780   33.734446  144.241851
  15 H     1.0000    0     1.008  -68.576272   32.338883  141.201660
  16 S    16.0000    0    32.060  -80.345864   29.415477  149.937863
  17 C     6.0000    0    12.011  -83.215224   28.346837  148.979205
  18 C     6.0000    0    12.011  -83.180075   26.019072  147.882408
  19 C     6.0000    0    12.011  -80.662582   25.214805  147.520148
  20 C     6.0000    0    12.011  -78.871311   27.057666  148.306652
  21 H     1.0000    0     1.008  -84.983252   25.277733  147.580052
  22 C     6.0000    0    12.011  -79.975100   22.723957  146.384422
  23 H     1.0000    0     1.008  -78.405871   23.123823  145.172730
  24 H     1.0000    0     1.008  -81.550942   21.970523  145.238115
  25 C     6.0000    0    12.011  -79.158927   20.621258  148.301928
  26 H     1.0000    0     1.008  -77.486330   21.277749  149.328805
  27 H     1.0000    0     1.008  -78.471256   18.919749  147.087590
  28 C     6.0000    0    12.011  -81.263515   19.632365  149.969611
  29 H     1.0000    0     1.008  -82.105010   21.257529  151.258782
  30 H     1.0000    0     1.008  -80.587938   18.181754  151.279380
  31 H     1.0000    0     1.008  -82.830476   18.767475  148.793067
  32 H     1.0000    0     1.008  -69.933095   29.502026  149.310663
  33 H     1.0000    0     1.008  -84.888388   29.463476  149.362442

--------------------------------
INTERNAL COORDINATES (ANGSTROEM)
--------------------------------
 S      0   0   0     0.000000000000     0.00000000     0.00000000
 C      1   0   0     1.772408367166     0.00000000     0.00000000
 C      2   1   0     1.398708579369   110.26590843     0.00000000
 C      3   2   1     1.426002741933   112.57303682   358.05878109
 C      4   3   2     1.396961305835   114.57392159   354.71958335
 H      4   3   2     1.098615442273   121.73288407   175.97184136
 C      3   2   1     1.525043297746   123.90968205   176.32381036
 H      7   3   2     1.130751334291   109.47268017   190.36713571
 H      7   3   2     1.098517660304   106.85407551    74.78909898
 C      7   3   2     1.551663658787   117.21192195   319.37960298
 H     10   7   3     1.081765196334   110.30381527    49.04796766
 H     10   7   3     1.038598522048   112.40624662   160.71894189
 C     10   7   3     1.574513756688   120.94033170   288.18876509
 H     13  10   7     1.087852885274   102.01855337    37.10322482
 H     13  10   7     1.100524833886   104.40230603   150.64010806
 H     13  10   7     1.087876803687   106.75383080   273.22634609
 S      5   4   3     2.658255708167   143.81533265   124.39705190
 C     17   5   4     1.697846312244   119.53290225    75.01354927
 C     18  17   5     1.361815464738   114.60742816    17.50516497
 C     19  18  17     1.411609397107   110.08923952   352.23147384
 C     20  19  18     1.422234822383   112.48984176   358.03904745
 H     19  18  17     1.044029180627   113.12347990   170.54484166
 C     20  19  18     1.493632836409   123.40655701   179.26129183
 H     23  20  19     1.070269199781   104.80733747   139.45390547
 H     23  20  19     1.105583312103   110.81185902    21.85928116
 C     23  20  19     1.566606201315   115.67844063   258.67109826
 H     26  23  20     1.095158586690   108.59569671   299.52277527
 H     26  23  20     1.164507677089   106.13547785   186.56381501
 C     26  23  20     1.514257847924   114.84519140    69.17590277
 H     29  26  23     1.184604967911   111.17440711   298.05939358
 H     29  26  23     1.094280437959   111.79437043   180.43769570
 H     29  26  23     1.133434772009   110.94523195    60.22360177
 H      2   1   3     1.031663559500   128.20038788   161.38643790
 H     18  17   5     1.083616080538   119.54972714   194.09728187

---------------------------
INTERNAL COORDINATES (A.U.)
---------------------------
 S      0   0   0     0.000000000000     0.00000000     0.00000000
 C      1   0   0     3.349366411414     0.00000000     0.00000000
 C      2   1   0     2.643176156173   110.26590843     0.00000000
 C      3   2   1     2.694754648474   112.57303682   358.05878109
 C      4   3   2     2.639874287713   114.57392159   354.71958335
 H      4   3   2     2.076082312392   121.73288407   175.97184136
 C      3   2   1     2.881914175112   123.90968205   176.32381036
 H      7   3   2     2.136810347375   109.47268017   190.36713571
 H      7   3   2     2.075897531251   106.85407551    74.78909898
 C      7   3   2     2.932219367066   117.21192195   319.37960298
 H     10   7   3     2.044239962279   110.30381527    49.04796766
 H     10   7   3     1.962666769766   112.40624662   160.71894189
 C     10   7   3     2.975399794232   120.94033170   288.18876509
 H     13  10   7     2.055744027165   102.01855337    37.10322482
 H     13  10   7     2.079690539624   104.40230603   150.64010806
 H     13  10   7     2.055789226414   106.75383080   273.22634609
 S      5   4   3     5.023375282368   143.81533265   124.39705190
 C     17   5   4     3.208464547629   119.53290225    75.01354927
 C     18  17   5     2.573458273294   114.60742816    17.50516497
 C     19  18  17     2.667555168601   110.08923952   352.23147384
 C     20  19  18     2.687634312431   112.48984176   358.03904745
 H     19  18  17     1.972929227207   113.12347990   170.54484166
 C     20  19  18     2.822557005446   123.40655701   179.26129183
 H     23  20  19     2.022515677157   104.80733747   139.45390547
 H     23  20  19     2.089249678108   110.81185902    21.85928116
 C     23  20  19     2.960456680189   115.67844063   258.67109826
 H     26  23  20     2.069549802056   108.59569671   299.52277527
 H     26  23  20     2.200600590548   106.13547785   186.56381501
 C     26  23  20     2.861532628718   114.84519140    69.17590277
 H     29  26  23     2.238578966235   111.17440711   298.05939358
 H     29  26  23     2.067890341450   111.79437043   180.43769570
 H     29  26  23     2.141881309761   110.94523195    60.22360177
 H      2   1   3     1.949561589801   128.20038788   161.38643790
 H     18  17   5     2.047737626529   119.54972714   194.09728187

---------------------
BASIS SET INFORMATION
---------------------
There are 3 groups of distinct atoms

 Group   1 Type S   : 10s7p1d contracted to 4s3p1d pattern {5311/511/1}
 Group   2 Type C   : 7s4p1d contracted to 3s2p1d pattern {511/31/1}
 Group   3 Type H   : 4s1p contracted to 2s1p pattern {31/1}

Atom   0S    basis set group =>   1
Atom   1C    basis set group =>   2
Atom   2C    basis set group =>   2
Atom   3C    basis set group =>   2
Atom   4C    basis set group =>   2
Atom   5H    basis set group =>   3
Atom   6C    basis set group =>   2
Atom   7H    basis set group =>   3
Atom   8H    basis set group =>   3
Atom   9C    basis set group =>   2
Atom  10H    basis set group =>   3
Atom  11H    basis set group =>   3
Atom  12C    basis set group =>   2
Atom  13H    basis set group =>   3
Atom  14H    basis set group =>   3
Atom  15H    basis set group =>   3
Atom  16S    basis set group =>   1
Atom  17C    basis set group =>   2
Atom  18C    basis set group =>   2
Atom  19C    basis set group =>   2
Atom  20C    basis set group =>   2
Atom  21H    basis set group =>   3
Atom  22C    basis set group =>   2
Atom  23H    basis set group =>   3
Atom  24H    basis set group =>   3
Atom  25C    basis set group =>   2
Atom  26H    basis set group =>   3
Atom  27H    basis set group =>   3
Atom  28C    basis set group =>   2
Atom  29H    basis set group =>   3
Atom  30H    basis set group =>   3
Atom  31H    basis set group =>   3
Atom  32H    basis set group =>   3
Atom  33H    basis set group =>   3


           ************************************************************
           *        Program running with 16 parallel MPI-processes    *
           *              working on a common directory               *
           ************************************************************
------------------------------------------------------------------------------
                           ORCA GTO INTEGRAL CALCULATION
------------------------------------------------------------------------------

                         BASIS SET STATISTICS AND STARTUP INFO

 # of primitive gaussian shells          ...  294
 # of primitive gaussian functions       ...  534
 # of contracted shells                  ...  154
 # of contracted basis functions         ...  322
 Highest angular momentum                ...    2
 Maximum contraction depth               ...    5
 Integral package used                   ... LIBINT
 Integral threshhold            Thresh   ...  1.000e-10
 Primitive cut-off              TCut     ...  1.000e-11


------------------------------ INTEGRAL EVALUATION ----------------------------


 * One electron integrals 
 Pre-screening matrix                    ... done
 Shell pair data                         ... done (   0.003 sec)



           ************************************************************
           *        Program running with 16 parallel MPI-processes    *
           *              working on a common directory               *
           ************************************************************
-------------------------------------------------------------------------------
                                 ORCA SCF
-------------------------------------------------------------------------------

------------
SCF SETTINGS
------------
Hamiltonian:
 Density Functional     Method          .... DFT(GTOs)
 Exchange Functional    Exchange        .... WB97X-D3
 Correlation Functional Correlation     .... WB97X-D3
 Gradients option       PostSCFGGA      .... off
 Hybrid DFT is turned on
   Fraction HF Exchange ScalHFX         ....  0.195728
   Scaling of DF-GGA-X  ScalDFX         ....  0.000000
   Scaling of DF-GGA-C  ScalDFC         ....  1.000000
   Scaling of DF-LDA-C  ScalLDAC        ....  1.000000
   Perturbative correction              ....  0.000000
   Density functional embedding theory  .... OFF
 Long-range corrected/Screened/Range-Separated Hybrid DFT is turned on
   Amount of maximum screened exact exchange              ....  0.804272
   Range separation parameter mu (erf(mu*r12)/r12)        ....  0.250000


General Settings:
 Integral files         IntName         .... config_6661
 Hartree-Fock type      HFTyp           .... RHF
 Total Charge           Charge          ....    0
 Multiplicity           Mult            ....    1
 Number of Electrons    NEL             ....  134
 Basis Dimension        Dim             ....  322
 Nuclear Repulsion      ENuc            ....   1285.9724697574 Eh

Convergence Acceleration:
 DIIS                   CNVDIIS         .... on
   Start iteration      DIISMaxIt       ....    12
   Startup error        DIISStart       ....  0.200000
   # of expansion vecs  DIISMaxEq       ....     5
   Bias factor          DIISBfac        ....   1.050
   Max. coefficient     DIISMaxC        ....  10.000
 Newton-Raphson         CNVNR           .... off
 SOSCF                  CNVSOSCF        .... on
   Start iteration      SOSCFMaxIt      ....   150
   Startup grad/error   SOSCFStart      ....  0.003300
 Level Shifting         CNVShift        .... on
   Level shift para.    LevelShift      ....    0.2500
   Turn off err/grad.   ShiftErr        ....    0.0010
 Zerner damping         CNVZerner       .... off
 Static damping         CNVDamp         .... on
   Fraction old density DampFac         ....    0.7000
   Max. Damping (<1)    DampMax         ....    0.9800
   Min. Damping (>=0)   DampMin         ....    0.0000
   Turn off err/grad.   DampErr         ....    0.1000
 Fernandez-Rico         CNVRico         .... off

SCF Procedure:
 Maximum # iterations   MaxIter         ....   125
 SCF integral mode      SCFMode         .... Direct
   Integral package                     .... LIBINT
 Reset frequency        DirectResetFreq ....    20
 Integral Threshold     Thresh          ....  1.000e-10 Eh
 Primitive CutOff       TCut            ....  1.000e-11 Eh

Convergence Tolerance:
 Convergence Check Mode ConvCheckMode   .... Total+1el-Energy
 Convergence forced     ConvForced      .... 0
 Energy Change          TolE            ....  1.000e-06 Eh
 1-El. energy change                    ....  1.000e-03 Eh
 Orbital Gradient       TolG            ....  5.000e-05
 Orbital Rotation angle TolX            ....  5.000e-05
 DIIS Error             TolErr          ....  1.000e-06


Diagonalization of the overlap matrix:
Smallest eigenvalue                        ... 5.873e-04
Time for diagonalization                   ...    0.016 sec
Threshold for overlap eigenvalues          ... 1.000e-08
Number of eigenvalues below threshold      ... 0
Time for construction of square roots      ...    0.023 sec
Total time needed                          ...    0.039 sec

-------------------
DFT GRID GENERATION
-------------------

General Integration Accuracy     IntAcc      ...  4.340
Radial Grid Type                 RadialGrid  ... Gauss-Chebyshev
Angular Grid (max. acc.)         AngularGrid ... Lebedev-110
Angular grid pruning method      GridPruning ... 3 (G Style)
Weight generation scheme         WeightScheme... Becke
Basis function cutoff            BFCut       ...    1.0000e-10
Integration weight cutoff        WCut        ...    1.0000e-14
Grids for H and He will be reduced by one unit

# of grid points (after initial pruning)     ...  41088 (   0.0 sec)
# of grid points (after weights+screening)   ...  37025 (   0.0 sec)
nearest neighbour list constructed           ...    0.0 sec
Grid point re-assignment to atoms done       ...    0.0 sec
Grid point division into batches done        ...    0.0 sec
Reduced shell lists constructed in    0.1 sec

Total number of grid points                  ...    37025
Total number of batches                      ...      595
Average number of points per batch           ...       62
Average number of grid points per atom       ...     1089
Average number of shells per batch           ...    78.15 (50.75%)
Average number of basis functions per batch  ...   154.00 (47.83%)
Average number of large shells per batch     ...    50.79 (64.99%)
Average number of large basis fcns per batch ...   103.82 (67.42%)
Maximum spatial batch extension              ...  11.42, 15.17, 14.67 au
Average spatial batch extension              ...   0.20,  0.22,  0.22 au

Time for grid setup =    0.168 sec

------------------------------
INITIAL GUESS: MODEL POTENTIAL
------------------------------
Loading Hartree-Fock densities                     ... done
Calculating cut-offs                               ... done
Setting up the integral package                    ... done
Initializing the effective Hamiltonian             ... done
Starting the Coulomb interaction                   ... done (   0.0 sec)
Reading the grid                                   ... done
Mapping shells                                     ... done
Starting the XC term evaluation                    ... done (   0.0 sec)
  promolecular density results
     # of electrons  =    133.988080782
     EX              =   -126.712234141
     EC              =     -4.619230902
     EX+EC           =   -131.331465044
Transforming the Hamiltonian                       ... done (   0.0 sec)
Diagonalizing the Hamiltonian                      ... done (   0.0 sec)
Back transforming the eigenvectors                 ... done (   0.0 sec)
Now organizing SCF variables                       ... done
                      ------------------
                      INITIAL GUESS DONE (   0.4 sec)
                      ------------------
--------------
SCF ITERATIONS
--------------
ITER       Energy         Delta-E        Max-DP      RMS-DP      [F,P]     Damp
               ***  Starting incremental Fock matrix formation  ***
  0  -1339.4122435718   0.000000000000 0.06455305  0.00160494  0.1519691 0.7000
  1  -1339.6003321661  -0.188088594247 0.04375578  0.00116111  0.0924500 0.7000
                               ***Turning on DIIS***
  2  -1339.6906630629  -0.090330896839 0.08467849  0.00217641  0.0483904 0.0000
  3  -1339.8268841683  -0.136221105419 0.04276429  0.00100703  0.0431642 0.0000
  4  -1339.8566709929  -0.029786824580 0.00787628  0.00020530  0.0076194 0.0000
                      *** Initiating the SOSCF procedure ***
                           *** Shutting down DIIS ***
                      *** Re-Reading the Fockian *** 
                      *** Removing any level shift *** 
ITER      Energy       Delta-E        Grad      Rot      Max-DP    RMS-DP
  5  -1339.85760394  -0.0009329513  0.001633  0.001633  0.003396  0.000106
               *** Restarting incremental Fock matrix formation ***
  6  -1339.85780066  -0.0001967108  0.001382  0.003880  0.002259  0.000070
  7  -1339.85786815  -0.0000674958  0.000741  0.004887  0.003321  0.000071
  8  -1339.85788640  -0.0000182462  0.000522  0.001007  0.000985  0.000024
  9  -1339.85789238  -0.0000059837  0.000128  0.000449  0.000366  0.000009
 10  -1339.85789292  -0.0000005380  0.000083  0.000276  0.000148  0.000004
                 **** Energy Check signals convergence ****
              ***Rediagonalizing the Fockian in SOSCF/NRSCF***

               *****************************************************
               *                     SUCCESS                       *
               *           SCF CONVERGED AFTER  11 CYCLES          *
               *****************************************************

Setting up the final grid:

General Integration Accuracy     IntAcc      ...  4.670
Radial Grid Type                 RadialGrid  ... Gauss-Chebyshev
Angular Grid (max. acc.)         AngularGrid ... Lebedev-302
Angular grid pruning method      GridPruning ... 3 (G Style)
Weight generation scheme         WeightScheme... Becke
Basis function cutoff            BFCut       ...    1.0000e-10
Integration weight cutoff        WCut        ...    1.0000e-14
Grids for H and He will be reduced by one unit

# of grid points (after initial pruning)     ... 161752 (   0.0 sec)
# of grid points (after weights+screening)   ... 142926 (   0.2 sec)
nearest neighbour list constructed           ...    0.0 sec
Grid point re-assignment to atoms done       ...    0.0 sec
Grid point division into batches done        ...    0.5 sec
Reduced shell lists constructed in    0.6 sec

Total number of grid points                  ...   142926
Total number of batches                      ...     2250
Average number of points per batch           ...       63
Average number of grid points per atom       ...     4204
Average number of shells per batch           ...    72.27 (46.93%)
Average number of basis functions per batch  ...   141.70 (44.01%)
Average number of large shells per batch     ...    45.15 (62.47%)
Average number of large basis fcns per batch ...    91.99 (64.92%)
Maximum spatial batch extension              ...  12.72, 15.16, 14.22 au
Average spatial batch extension              ...   0.13,  0.14,  0.14 au

Final grid set up in    1.0 sec
Final integration                            ... done (   0.3 sec)
Change in XC energy                          ...     0.006486737
Integrated number of electrons               ...   134.000002771
Previous integrated no of electrons          ...   133.999209368

----------------
TOTAL SCF ENERGY
----------------

Total Energy       :        -1339.85140646 Eh          -36459.21032 eV

Components:
Nuclear Repulsion  :         1285.97246976 Eh           34993.08992 eV
Electronic Energy  :        -2625.82387622 Eh          -71452.30024 eV
One Electron Energy:        -4388.55690688 Eh         -119418.70457 eV
Two Electron Energy:         1762.73303066 Eh           47966.40433 eV

Virial components:
Potential Energy   :        -2671.32216418 Eh          -72690.37159 eV
Kinetic Energy     :         1331.47075772 Eh           36231.16127 eV
Virial Ratio       :            2.00629428


DFT components:
N(Alpha)           :       67.000001385281 electrons
N(Beta)            :       67.000001385281 electrons
N(Total)           :      134.000002770561 electrons
E(XC)              :      -94.243741265008 Eh       
DFET-embed. en.    :        0.000000000000 Eh       

---------------
SCF CONVERGENCE
---------------

  Last Energy change         ...   -2.7909e-07  Tolerance :   1.0000e-06
  Last MAX-Density change    ...    3.7327e-05  Tolerance :   1.0000e-05
  Last RMS-Density change    ...    7.3758e-07  Tolerance :   1.0000e-06
  Last Orbital Gradient      ...    9.5157e-06  Tolerance :   5.0000e-05
  Last Orbital Rotation      ...    1.8663e-05  Tolerance :   5.0000e-05

             **** THE GBW FILE WAS UPDATED (config_6661.gbw) ****
             **** DENSITY FILE WAS UPDATED (config_6661.scfp) ****
             **** ENERGY FILE WAS UPDATED (config_6661.en.tmp) ****
             **** THE GBW FILE WAS UPDATED (config_6661.gbw) ****
             **** DENSITY FILE WAS UPDATED (config_6661.scfp) ****
----------------
ORBITAL ENERGIES
----------------

  NO   OCC          E(Eh)            E(eV) 
   0   2.0000     -88.968000     -2420.9424 
   1   2.0000     -88.964647     -2420.8511 
   2   2.0000     -10.333106      -281.1781 
   3   2.0000     -10.323248      -280.9099 
   4   2.0000     -10.309722      -280.5418 
   5   2.0000     -10.309503      -280.5358 
   6   2.0000     -10.305977      -280.4399 
   7   2.0000     -10.303346      -280.3683 
   8   2.0000     -10.301005      -280.3046 
   9   2.0000     -10.296963      -280.1946 
  10   2.0000     -10.291966      -280.0586 
  11   2.0000     -10.288265      -279.9579 
  12   2.0000     -10.287975      -279.9500 
  13   2.0000     -10.287630      -279.9406 
  14   2.0000     -10.281919      -279.7852 
  15   2.0000     -10.278564      -279.6940 
  16   2.0000      -8.082061      -219.9241 
  17   2.0000      -8.081530      -219.9096 
  18   2.0000      -6.040737      -164.3768 
  19   2.0000      -6.039687      -164.3483 
  20   2.0000      -6.036681      -164.2665 
  21   2.0000      -6.035779      -164.2419 
  22   2.0000      -6.032669      -164.1573 
  23   2.0000      -6.032481      -164.1521 
  24   2.0000      -1.016389       -27.6574 
  25   2.0000      -0.985175       -26.8080 
  26   2.0000      -0.909170       -24.7398 
  27   2.0000      -0.906222       -24.6596 
  28   2.0000      -0.873186       -23.7606 
  29   2.0000      -0.850334       -23.1388 
  30   2.0000      -0.844940       -22.9920 
  31   2.0000      -0.815875       -22.2011 
  32   2.0000      -0.783974       -21.3330 
  33   2.0000      -0.770207       -20.9584 
  34   2.0000      -0.711323       -19.3561 
  35   2.0000      -0.701929       -19.1004 
  36   2.0000      -0.682984       -18.5849 
  37   2.0000      -0.665301       -18.1038 
  38   2.0000      -0.633472       -17.2377 
  39   2.0000      -0.616591       -16.7783 
  40   2.0000      -0.592378       -16.1194 
  41   2.0000      -0.577603       -15.7174 
  42   2.0000      -0.557087       -15.1591 
  43   2.0000      -0.548412       -14.9231 
  44   2.0000      -0.541277       -14.7289 
  45   2.0000      -0.537953       -14.6384 
  46   2.0000      -0.517390       -14.0789 
  47   2.0000      -0.512990       -13.9592 
  48   2.0000      -0.505815       -13.7639 
  49   2.0000      -0.497090       -13.5265 
  50   2.0000      -0.484494       -13.1837 
  51   2.0000      -0.476201       -12.9581 
  52   2.0000      -0.473943       -12.8966 
  53   2.0000      -0.467412       -12.7189 
  54   2.0000      -0.460303       -12.5255 
  55   2.0000      -0.451976       -12.2989 
  56   2.0000      -0.442213       -12.0332 
  57   2.0000      -0.437541       -11.9061 
  58   2.0000      -0.429521       -11.6879 
  59   2.0000      -0.425096       -11.5675 
  60   2.0000      -0.417606       -11.3636 
  61   2.0000      -0.413514       -11.2523 
  62   2.0000      -0.407091       -11.0775 
  63   2.0000      -0.353376        -9.6158 
  64   2.0000      -0.335527        -9.1302 
  65   2.0000      -0.326843        -8.8938 
  66   2.0000      -0.281158        -7.6507 
  67   0.0000       0.020922         0.5693 
  68   0.0000       0.067972         1.8496 
  69   0.0000       0.102553         2.7906 
  70   0.0000       0.121280         3.3002 
  71   0.0000       0.139923         3.8075 
  72   0.0000       0.140897         3.8340 
  73   0.0000       0.149099         4.0572 
  74   0.0000       0.162961         4.4344 
  75   0.0000       0.169471         4.6115 
  76   0.0000       0.174001         4.7348 
  77   0.0000       0.183228         4.9859 
  78   0.0000       0.188739         5.1359 
  79   0.0000       0.194697         5.2980 
  80   0.0000       0.196271         5.3408 
  81   0.0000       0.204834         5.5738 
  82   0.0000       0.214696         5.8422 
  83   0.0000       0.218260         5.9391 
  84   0.0000       0.225348         6.1320 
  85   0.0000       0.226445         6.1619 
  86   0.0000       0.228460         6.2167 
  87   0.0000       0.237643         6.4666 
  88   0.0000       0.242635         6.6024 
  89   0.0000       0.245344         6.6762 
  90   0.0000       0.265825         7.2335 
  91   0.0000       0.268945         7.3184 
  92   0.0000       0.285632         7.7725 
  93   0.0000       0.292973         7.9722 
  94   0.0000       0.305007         8.2997 
  95   0.0000       0.311339         8.4720 
  96   0.0000       0.325686         8.8624 
  97   0.0000       0.335538         9.1304 
  98   0.0000       0.345182         9.3929 
  99   0.0000       0.357246         9.7211 
 100   0.0000       0.393319        10.7027 
 101   0.0000       0.406504        11.0615 
 102   0.0000       0.419874        11.4254 
 103   0.0000       0.420707        11.4480 
 104   0.0000       0.433478        11.7955 
 105   0.0000       0.449442        12.2299 
 106   0.0000       0.457339        12.4448 
 107   0.0000       0.482256        13.1229 
 108   0.0000       0.490002        13.3336 
 109   0.0000       0.495499        13.4832 
 110   0.0000       0.506442        13.7810 
 111   0.0000       0.509321        13.8593 
 112   0.0000       0.519616        14.1395 
 113   0.0000       0.524876        14.2826 
 114   0.0000       0.529468        14.4076 
 115   0.0000       0.542102        14.7514 
 116   0.0000       0.544886        14.8271 
 117   0.0000       0.551545        15.0083 
 118   0.0000       0.556491        15.1429 
 119   0.0000       0.562526        15.3071 
 120   0.0000       0.567111        15.4319 
 121   0.0000       0.590843        16.0776 
 122   0.0000       0.601757        16.3747 
 123   0.0000       0.608338        16.5537 
 124   0.0000       0.613145        16.6845 
 125   0.0000       0.622687        16.9442 
 126   0.0000       0.642705        17.4889 
 127   0.0000       0.651230        17.7209 
 128   0.0000       0.658175        17.9099 
 129   0.0000       0.664063        18.0701 
 130   0.0000       0.677583        18.4380 
 131   0.0000       0.678931        18.4746 
 132   0.0000       0.690365        18.7858 
 133   0.0000       0.697553        18.9814 
 134   0.0000       0.699649        19.0384 
 135   0.0000       0.714219        19.4349 
 136   0.0000       0.717493        19.5240 
 137   0.0000       0.720894        19.6165 
 138   0.0000       0.732131        19.9223 
 139   0.0000       0.735148        20.0044 
 140   0.0000       0.739364        20.1191 
 141   0.0000       0.744455        20.2576 
 142   0.0000       0.745897        20.2969 
 143   0.0000       0.750072        20.4105 
 144   0.0000       0.758731        20.6461 
 145   0.0000       0.764415        20.8008 
 146   0.0000       0.767499        20.8847 
 147   0.0000       0.769737        20.9456 
 148   0.0000       0.774555        21.0767 
 149   0.0000       0.781272        21.2595 
 150   0.0000       0.784028        21.3345 
 151   0.0000       0.786088        21.3905 
 152   0.0000       0.794969        21.6322 
 153   0.0000       0.801775        21.8174 
 154   0.0000       0.805202        21.9107 
 155   0.0000       0.811532        22.0829 
 156   0.0000       0.815287        22.1851 
 157   0.0000       0.817130        22.2352 
 158   0.0000       0.820599        22.3296 
 159   0.0000       0.824938        22.4477 
 160   0.0000       0.831780        22.6339 
 161   0.0000       0.833726        22.6868 
 162   0.0000       0.839327        22.8392 
 163   0.0000       0.848343        23.0846 
 164   0.0000       0.855987        23.2926 
 165   0.0000       0.864148        23.5147 
 166   0.0000       0.872477        23.7413 
 167   0.0000       0.874369        23.7928 
 168   0.0000       0.881754        23.9938 
 169   0.0000       0.892192        24.2778 
 170   0.0000       0.902948        24.5705 
 171   0.0000       0.921110        25.0647 
 172   0.0000       0.925351        25.1801 
 173   0.0000       0.949399        25.8345 
 174   0.0000       0.964420        26.2432 
 175   0.0000       0.972389        26.4600 
 176   0.0000       0.989122        26.9154 
 177   0.0000       0.991354        26.9761 
 178   0.0000       1.017723        27.6937 
 179   0.0000       1.026430        27.9306 
 180   0.0000       1.039900        28.2971 
 181   0.0000       1.047656        28.5082 
 182   0.0000       1.066999        29.0345 
 183   0.0000       1.102498        30.0005 
 184   0.0000       1.123263        30.5655 
 185   0.0000       1.130684        30.7675 
 186   0.0000       1.167848        31.7787 
 187   0.0000       1.180232        32.1157 
 188   0.0000       1.187207        32.3055 
 189   0.0000       1.210520        32.9399 
 190   0.0000       1.218905        33.1681 
 191   0.0000       1.221540        33.2398 
 192   0.0000       1.248465        33.9725 
 193   0.0000       1.269197        34.5366 
 194   0.0000       1.289398        35.0863 
 195   0.0000       1.310365        35.6568 
 196   0.0000       1.316533        35.8247 
 197   0.0000       1.337120        36.3849 
 198   0.0000       1.341610        36.5071 
 199   0.0000       1.363948        37.1149 
 200   0.0000       1.374749        37.4088 
 201   0.0000       1.412638        38.4398 
 202   0.0000       1.422803        38.7164 
 203   0.0000       1.438553        39.1450 
 204   0.0000       1.450912        39.4813 
 205   0.0000       1.455716        39.6120 
 206   0.0000       1.482922        40.3524 
 207   0.0000       1.517763        41.3004 
 208   0.0000       1.543909        42.0119 
 209   0.0000       1.568366        42.6774 
 210   0.0000       1.587411        43.1957 
 211   0.0000       1.608732        43.7758 
 212   0.0000       1.616506        43.9874 
 213   0.0000       1.624720        44.2109 
 214   0.0000       1.664013        45.2801 
 215   0.0000       1.677757        45.6541 
 216   0.0000       1.681632        45.7595 
 217   0.0000       1.689738        45.9801 
 218   0.0000       1.753291        47.7095 
 219   0.0000       1.764891        48.0251 
 220   0.0000       1.770013        48.1645 
 221   0.0000       1.791524        48.7499 
 222   0.0000       1.795142        48.8483 
 223   0.0000       1.799792        48.9748 
 224   0.0000       1.818685        49.4889 
 225   0.0000       1.821194        49.5572 
 226   0.0000       1.822155        49.5834 
 227   0.0000       1.828014        49.7428 
 228   0.0000       1.840382        50.0793 
 229   0.0000       1.854358        50.4596 
 230   0.0000       1.860887        50.6373 
 231   0.0000       1.863822        50.7172 
 232   0.0000       1.875907        51.0460 
 233   0.0000       1.879109        51.1332 
 234   0.0000       1.887342        51.3572 
 235   0.0000       1.890314        51.4381 
 236   0.0000       1.901535        51.7434 
 237   0.0000       1.918336        52.2006 
 238   0.0000       1.930048        52.5193 
 239   0.0000       1.931901        52.5697 
 240   0.0000       1.940910        52.8148 
 241   0.0000       1.942562        52.8598 
 242   0.0000       1.948428        53.0194 
 243   0.0000       1.961219        53.3675 
 244   0.0000       1.973473        53.7009 
 245   0.0000       1.979604        53.8678 
 246   0.0000       1.986211        54.0475 
 247   0.0000       1.992841        54.2280 
 248   0.0000       2.017007        54.8855 
 249   0.0000       2.032202        55.2990 
 250   0.0000       2.036066        55.4042 
 251   0.0000       2.059978        56.0549 
 252   0.0000       2.067782        56.2672 
 253   0.0000       2.075345        56.4730 
 254   0.0000       2.084204        56.7141 
 255   0.0000       2.096637        57.0524 
 256   0.0000       2.106300        57.3153 
 257   0.0000       2.128541        57.9205 
 258   0.0000       2.143429        58.3257 
 259   0.0000       2.153767        58.6070 
 260   0.0000       2.176612        59.2286 
 261   0.0000       2.184898        59.4541 
 262   0.0000       2.201081        59.8945 
 263   0.0000       2.215088        60.2756 
 264   0.0000       2.218527        60.3692 
 265   0.0000       2.233362        60.7729 
 266   0.0000       2.251294        61.2608 
 267   0.0000       2.265225        61.6399 
 268   0.0000       2.294619        62.4398 
 269   0.0000       2.316630        63.0387 
 270   0.0000       2.324220        63.2452 
 271   0.0000       2.342852        63.7522 
 272   0.0000       2.366039        64.3832 
 273   0.0000       2.373578        64.5884 
 274   0.0000       2.398050        65.2543 
 275   0.0000       2.405634        65.4606 
 276   0.0000       2.412170        65.6385 
 277   0.0000       2.426719        66.0344 
 278   0.0000       2.436146        66.2909 
 279   0.0000       2.455981        66.8306 
 280   0.0000       2.469083        67.1872 
 281   0.0000       2.493281        67.8456 
 282   0.0000       2.496918        67.9446 
 283   0.0000       2.509418        68.2847 
 284   0.0000       2.531115        68.8751 
 285   0.0000       2.549422        69.3733 
 286   0.0000       2.568267        69.8861 
 287   0.0000       2.598790        70.7167 
 288   0.0000       2.608245        70.9740 
 289   0.0000       2.613405        71.1144 
 290   0.0000       2.625766        71.4507 
 291   0.0000       2.647031        72.0294 
 292   0.0000       2.677143        72.8488 
 293   0.0000       2.681076        72.9558 
 294   0.0000       2.711300        73.7782 
 295   0.0000       2.715447        73.8911 
 296   0.0000       2.753737        74.9330 
 297   0.0000       2.762399        75.1687 
 298   0.0000       2.784010        75.7568 
 299   0.0000       2.797356        76.1199 
 300   0.0000       2.843103        77.3648 
 301   0.0000       2.862030        77.8798 
 302   0.0000       2.900889        78.9372 
 303   0.0000       2.904296        79.0299 
 304   0.0000       2.942171        80.0605 
 305   0.0000       2.964481        80.6676 
 306   0.0000       2.994311        81.4793 
 307   0.0000       2.999050        81.6083 
 308   0.0000       3.032905        82.5295 
 309   0.0000       3.042161        82.7814 
 310   0.0000       3.060635        83.2841 
 311   0.0000       3.068491        83.4979 
 312   0.0000       3.078480        83.7697 
 313   0.0000       3.091840        84.1333 
 314   0.0000       3.134012        85.2808 
 315   0.0000       3.146916        85.6319 
 316   0.0000       3.160030        85.9888 
 317   0.0000       3.205959        87.2386 
 318   0.0000       3.247764        88.3761 
 319   0.0000       3.280392        89.2640 
 320   0.0000       3.385504        92.1243 
 321   0.0000       3.488613        94.9300 

                    ********************************
                    * MULLIKEN POPULATION ANALYSIS *
                    ********************************

-----------------------
MULLIKEN ATOMIC CHARGES
-----------------------
   0 S :    0.090637
   1 C :   -0.081317
   2 C :   -0.107752
   3 C :    0.013917
   4 C :   -0.128123
   5 H :    0.021818
   6 C :    0.069948
   7 H :    0.030842
   8 H :    0.047935
   9 C :   -0.097001
  10 H :    0.008526
  11 H :    0.007050
  12 C :   -0.039913
  13 H :    0.041052
  14 H :    0.036508
  15 H :    0.045109
  16 S :    0.116214
  17 C :   -0.101128
  18 C :   -0.013945
  19 C :   -0.029649
  20 C :   -0.157948
  21 H :   -0.003821
  22 C :    0.096069
  23 H :    0.012628
  24 H :    0.021089
  25 C :   -0.091432
  26 H :    0.041829
  27 H :    0.037784
  28 C :   -0.092042
  29 H :    0.053672
  30 H :    0.042752
  31 H :    0.037997
  32 H :    0.017649
  33 H :    0.053044
Sum of atomic charges:   -0.0000000

--------------------------------
MULLIKEN REDUCED ORBITAL CHARGES
--------------------------------
  0 S s       :     5.844100  s :     5.844100
      pz      :     3.381391  p :     9.960818
      px      :     3.013485
      py      :     3.565941
      dz2     :     0.014178  d :     0.104446
      dxz     :     0.037385
      dyz     :     0.014316
      dx2y2   :     0.018566
      dxy     :     0.020001
  1 C s       :     3.157556  s :     3.157556
      pz      :     0.972467  p :     2.891074
      px      :     0.841299
      py      :     1.077309
      dz2     :     0.008146  d :     0.032686
      dxz     :     0.009465
      dyz     :     0.005539
      dx2y2   :     0.004311
      dxy     :     0.005226
  2 C s       :     3.088747  s :     3.088747
      pz      :     0.990827  p :     2.975849
      px      :     0.995806
      py      :     0.989215
      dz2     :     0.011408  d :     0.043156
      dxz     :     0.011233
      dyz     :     0.006567
      dx2y2   :     0.006688
      dxy     :     0.007260
  3 C s       :     3.188983  s :     3.188983
      pz      :     0.835760  p :     2.763796
      px      :     0.912508
      py      :     1.015527
      dz2     :     0.007759  d :     0.033304
      dxz     :     0.009963
      dyz     :     0.004267
      dx2y2   :     0.005043
      dxy     :     0.006272
  4 C s       :     3.053152  s :     3.053152
      pz      :     0.952667  p :     3.029796
      px      :     1.021025
      py      :     1.056104
      dz2     :     0.008874  d :     0.045175
      dxz     :     0.014338
      dyz     :     0.008024
      dx2y2   :     0.007197
      dxy     :     0.006742
  5 H s       :     0.954727  s :     0.954727
      pz      :     0.013112  p :     0.023455
      px      :     0.004422
      py      :     0.005921
  6 C s       :     2.992506  s :     2.992506
      pz      :     0.955174  p :     2.903551
      px      :     0.939835
      py      :     1.008542
      dz2     :     0.006427  d :     0.033995
      dxz     :     0.009260
      dyz     :     0.003911
      dx2y2   :     0.004733
      dxy     :     0.009663
  7 H s       :     0.948242  s :     0.948242
      pz      :     0.011605  p :     0.020916
      px      :     0.005185
      py      :     0.004126
  8 H s       :     0.929137  s :     0.929137
      pz      :     0.004986  p :     0.022928
      px      :     0.007359
      py      :     0.010583
  9 C s       :     3.027840  s :     3.027840
      pz      :     1.036350  p :     3.032116
      px      :     1.000655
      py      :     0.995112
      dz2     :     0.007095  d :     0.037045
      dxz     :     0.007174
      dyz     :     0.005247
      dx2y2   :     0.008790
      dxy     :     0.008739
 10 H s       :     0.967336  s :     0.967336
      pz      :     0.013097  p :     0.024138
      px      :     0.006083
      py      :     0.004958
 11 H s       :     0.967850  s :     0.967850
      pz      :     0.008649  p :     0.025099
      px      :     0.011544
      py      :     0.004907
 12 C s       :     3.027963  s :     3.027963
      pz      :     0.996955  p :     2.985320
      px      :     1.022857
      py      :     0.965508
      dz2     :     0.007477  d :     0.026630
      dxz     :     0.003857
      dyz     :     0.004591
      dx2y2   :     0.005804
      dxy     :     0.004902
 13 H s       :     0.934451  s :     0.934451
      pz      :     0.005703  p :     0.024498
      px      :     0.013543
      py      :     0.005252
 14 H s       :     0.939870  s :     0.939870
      pz      :     0.006654  p :     0.023622
      px      :     0.008379
      py      :     0.008588
 15 H s       :     0.931311  s :     0.931311
      pz      :     0.014283  p :     0.023580
      px      :     0.004672
      py      :     0.004624
 16 S s       :     5.833337  s :     5.833337
      pz      :     3.491927  p :     9.928678
      px      :     3.011605
      py      :     3.425146
      dz2     :     0.014105  d :     0.121771
      dxz     :     0.032327
      dyz     :     0.016664
      dx2y2   :     0.025747
      dxy     :     0.032928
 17 C s       :     3.138813  s :     3.138813
      pz      :     1.038471  p :     2.924113
      px      :     0.879051
      py      :     1.006590
      dz2     :     0.005587  d :     0.038202
      dxz     :     0.006265
      dyz     :     0.005059
      dx2y2   :     0.009108
      dxy     :     0.012183
 18 C s       :     3.201864  s :     3.201864
      pz      :     1.009283  p :     2.775355
      px      :     0.843236
      py      :     0.922836
      dz2     :     0.004717  d :     0.036727
      dxz     :     0.005397
      dyz     :     0.005752
      dx2y2   :     0.012429
      dxy     :     0.008431
 19 C s       :     3.062546  s :     3.062546
      pz      :     1.008349  p :     2.922844
      px      :     0.940255
      py      :     0.974241
      dz2     :     0.004419  d :     0.044258
      dxz     :     0.008801
      dyz     :     0.006467
      dx2y2   :     0.011255
      dxy     :     0.013317
 20 C s       :     3.052830  s :     3.052830
      pz      :     1.060151  p :     3.060665
      px      :     1.005942
      py      :     0.994571
      dz2     :     0.006275  d :     0.044454
      dxz     :     0.007191
      dyz     :     0.006280
      dx2y2   :     0.011449
      dxy     :     0.013258
 21 H s       :     0.977174  s :     0.977174
      pz      :     0.006382  p :     0.026647
      px      :     0.013812
      py      :     0.006453
 22 C s       :     2.941859  s :     2.941859
      pz      :     1.026299  p :     2.926620
      px      :     0.981892
      py      :     0.918429
      dz2     :     0.003542  d :     0.035452
      dxz     :     0.009167
      dyz     :     0.008747
      dx2y2   :     0.008185
      dxy     :     0.005811
 23 H s       :     0.963190  s :     0.963190
      pz      :     0.008152  p :     0.024182
      px      :     0.010994
      py      :     0.005035
 24 H s       :     0.957109  s :     0.957109
      pz      :     0.006991  p :     0.021802
      px      :     0.009825
      py      :     0.004986
 25 C s       :     3.083447  s :     3.083447
      pz      :     0.992384  p :     2.972485
      px      :     1.011218
      py      :     0.968883
      dz2     :     0.003537  d :     0.035500
      dxz     :     0.009340
      dyz     :     0.009809
      dx2y2   :     0.006386
      dxy     :     0.006427
 26 H s       :     0.936148  s :     0.936148
      pz      :     0.006282  p :     0.022023
      px      :     0.010538
      py      :     0.005203
 27 H s       :     0.942920  s :     0.942920
      pz      :     0.006160  p :     0.019296
      px      :     0.004370
      py      :     0.008766
 28 C s       :     3.069036  s :     3.069036
      pz      :     0.990916  p :     2.995716
      px      :     0.988631
      py      :     1.016169
      dz2     :     0.001751  d :     0.027289
      dxz     :     0.007813
      dyz     :     0.008290
      dx2y2   :     0.003658
      dxy     :     0.005778
 29 H s       :     0.926792  s :     0.926792
      pz      :     0.006312  p :     0.019536
      px      :     0.004552
      py      :     0.008672
 30 H s       :     0.934308  s :     0.934308
      pz      :     0.008430  p :     0.022940
      px      :     0.005281
      py      :     0.009229
 31 H s       :     0.940874  s :     0.940874
      pz      :     0.006573  p :     0.021129
      px      :     0.008919
      py      :     0.005637
 32 H s       :     0.955092  s :     0.955092
      pz      :     0.005160  p :     0.027259
      px      :     0.013409
      py      :     0.008690
 33 H s       :     0.923637  s :     0.923637
      pz      :     0.005100  p :     0.023319
      px      :     0.010995
      py      :     0.007224


                     *******************************
                     * LOEWDIN POPULATION ANALYSIS *
                     *******************************

----------------------
LOEWDIN ATOMIC CHARGES
----------------------
   0 S :    0.392294
   1 C :   -0.191028
   2 C :   -0.059886
   3 C :   -0.070758
   4 C :   -0.186683
   5 H :    0.032065
   6 C :   -0.034499
   7 H :    0.033584
   8 H :    0.042823
   9 C :   -0.043265
  10 H :    0.018220
  11 H :    0.013229
  12 C :   -0.060652
  13 H :    0.028138
  14 H :    0.030082
  15 H :    0.025470
  16 S :    0.446692
  17 C :   -0.191707
  18 C :   -0.068814
  19 C :   -0.050214
  20 C :   -0.218100
  21 H :    0.028514
  22 C :   -0.034084
  23 H :    0.028451
  24 H :    0.030568
  25 C :   -0.044890
  26 H :    0.025895
  27 H :    0.032147
  28 C :   -0.082674
  29 H :    0.037178
  30 H :    0.026801
  31 H :    0.029071
  32 H :    0.010577
  33 H :    0.025454

-------------------------------
LOEWDIN REDUCED ORBITAL CHARGES
-------------------------------
  0 S s       :     5.516011  s :     5.516011
      pz      :     3.403271  p :     9.963803
      px      :     3.015966
      py      :     3.544566
      dz2     :     0.015398  d :     0.127892
      dxz     :     0.047690
      dyz     :     0.016320
      dx2y2   :     0.023758
      dxy     :     0.024726
  1 C s       :     2.920684  s :     2.920684
      pz      :     1.066771  p :     3.192111
      px      :     1.018089
      py      :     1.107252
      dz2     :     0.021743  d :     0.078233
      dxz     :     0.023535
      dyz     :     0.012007
      dx2y2   :     0.009053
      dxy     :     0.011894
  2 C s       :     2.868372  s :     2.868372
      pz      :     1.055781  p :     3.085409
      px      :     1.044240
      py      :     0.985388
      dz2     :     0.030387  d :     0.106105
      dxz     :     0.029368
      dyz     :     0.014873
      dx2y2   :     0.016829
      dxy     :     0.014648
  3 C s       :     2.871290  s :     2.871290
      pz      :     1.040718  p :     3.110882
      px      :     1.037127
      py      :     1.033037
      dz2     :     0.023159  d :     0.088587
      dxz     :     0.029346
      dyz     :     0.008855
      dx2y2   :     0.013257
      dxy     :     0.013969
  4 C s       :     2.908032  s :     2.908032
      pz      :     1.054482  p :     3.170451
      px      :     1.055864
      py      :     1.060105
      dz2     :     0.022236  d :     0.108199
      dxz     :     0.036731
      dyz     :     0.016388
      dx2y2   :     0.018082
      dxy     :     0.014762
  5 H s       :     0.900044  s :     0.900044
      pz      :     0.036487  p :     0.067890
      px      :     0.013803
      py      :     0.017601
  6 C s       :     2.841123  s :     2.841123
      pz      :     1.031888  p :     3.108755
      px      :     1.024870
      py      :     1.051997
      dz2     :     0.016977  d :     0.084620
      dxz     :     0.024222
      dyz     :     0.007852
      dx2y2   :     0.010855
      dxy     :     0.024714
  7 H s       :     0.906282  s :     0.906282
      pz      :     0.032529  p :     0.060134
      px      :     0.015045
      py      :     0.012561
  8 H s       :     0.889894  s :     0.889894
      pz      :     0.014168  p :     0.067283
      px      :     0.021888
      py      :     0.031227
  9 C s       :     2.826240  s :     2.826240
      pz      :     1.072823  p :     3.129301
      px      :     1.042753
      py      :     1.013725
      dz2     :     0.017625  d :     0.087724
      dxz     :     0.017255
      dyz     :     0.011660
      dx2y2   :     0.019296
      dxy     :     0.021888
 10 H s       :     0.911607  s :     0.911607
      pz      :     0.035402  p :     0.070173
      px      :     0.018441
      py      :     0.016330
 11 H s       :     0.908468  s :     0.908468
      pz      :     0.024151  p :     0.078304
      px      :     0.035620
      py      :     0.018532
 12 C s       :     2.842758  s :     2.842758
      pz      :     1.054555  p :     3.150863
      px      :     1.069996
      py      :     1.026312
      dz2     :     0.019385  d :     0.067032
      dxz     :     0.009519
      dyz     :     0.010812
      dx2y2   :     0.015543
      dxy     :     0.011773
 13 H s       :     0.902729  s :     0.902729
      pz      :     0.015972  p :     0.069132
      px      :     0.037898
      py      :     0.015262
 14 H s       :     0.904757  s :     0.904757
      pz      :     0.018090  p :     0.065161
      px      :     0.022364
      py      :     0.024707
 15 H s       :     0.906892  s :     0.906892
      pz      :     0.040779  p :     0.067637
      px      :     0.012748
      py      :     0.014110
 16 S s       :     5.469636  s :     5.469636
      pz      :     3.479881  p :     9.931547
      px      :     3.018351
      py      :     3.433316
      dz2     :     0.015991  d :     0.152124
      dxz     :     0.040851
      dyz     :     0.019634
      dx2y2   :     0.033155
      dxy     :     0.042493
 17 C s       :     2.919727  s :     2.919727
      pz      :     1.069245  p :     3.181419
      px      :     1.019487
      py      :     1.092687
      dz2     :     0.011318  d :     0.090561
      dxz     :     0.013945
      dyz     :     0.011765
      dx2y2   :     0.023497
      dxy     :     0.030035
 18 C s       :     2.849455  s :     2.849455
      pz      :     1.028895  p :     3.122799
      px      :     1.040171
      py      :     1.053733
      dz2     :     0.010067  d :     0.096559
      dxz     :     0.012151
      dyz     :     0.014904
      dx2y2   :     0.035314
      dxy     :     0.024123
 19 C s       :     2.856009  s :     2.856009
      pz      :     1.002593  p :     3.083793
      px      :     1.047006
      py      :     1.034195
      dz2     :     0.009661  d :     0.110411
      dxz     :     0.019471
      dyz     :     0.014166
      dx2y2   :     0.030814
      dxy     :     0.036299
 20 C s       :     2.899592  s :     2.899592
      pz      :     1.086619  p :     3.210092
      px      :     1.057500
      py      :     1.065973
      dz2     :     0.013877  d :     0.108415
      dxz     :     0.017235
      dyz     :     0.014186
      dx2y2   :     0.029404
      dxy     :     0.033713
 21 H s       :     0.892671  s :     0.892671
      pz      :     0.019284  p :     0.078815
      px      :     0.040330
      py      :     0.019201
 22 C s       :     2.825493  s :     2.825493
      pz      :     1.047859  p :     3.119591
      px      :     1.061113
      py      :     1.010619
      dz2     :     0.006902  d :     0.088999
      dxz     :     0.023329
      dyz     :     0.023681
      dx2y2   :     0.020662
      dxy     :     0.014426
 23 H s       :     0.899276  s :     0.899276
      pz      :     0.024615  p :     0.072273
      px      :     0.031344
      py      :     0.016314
 24 H s       :     0.905406  s :     0.905406
      pz      :     0.021193  p :     0.064025
      px      :     0.027574
      py      :     0.015258
 25 C s       :     2.855817  s :     2.855817
      pz      :     1.037792  p :     3.103983
      px      :     1.047905
      py      :     1.018285
      dz2     :     0.006862  d :     0.085091
      dxz     :     0.023388
      dyz     :     0.024668
      dx2y2   :     0.015047
      dxy     :     0.015127
 26 H s       :     0.907299  s :     0.907299
      pz      :     0.019781  p :     0.066806
      px      :     0.031442
      py      :     0.015583
 27 H s       :     0.913124  s :     0.913124
      pz      :     0.017450  p :     0.054728
      px      :     0.012142
      py      :     0.025137
 28 C s       :     2.863331  s :     2.863331
      pz      :     1.047745  p :     3.150744
      px      :     1.046951
      py      :     1.056048
      dz2     :     0.003417  d :     0.068599
      dxz     :     0.020689
      dyz     :     0.021346
      dx2y2   :     0.008832
      dxy     :     0.014315
 29 H s       :     0.910403  s :     0.910403
      pz      :     0.017342  p :     0.052419
      px      :     0.012088
      py      :     0.022989
 30 H s       :     0.906912  s :     0.906912
      pz      :     0.024227  p :     0.066287
      px      :     0.015697
      py      :     0.026363
 31 H s       :     0.911737  s :     0.911737
      pz      :     0.018598  p :     0.059192
      px      :     0.025375
      py      :     0.015219
 32 H s       :     0.902613  s :     0.902613
      pz      :     0.017550  p :     0.086810
      px      :     0.041893
      py      :     0.027367
 33 H s       :     0.900607  s :     0.900607
      pz      :     0.016712  p :     0.073939
      px      :     0.035336
      py      :     0.021890


                      *****************************
                      * MAYER POPULATION ANALYSIS *
                      *****************************

  NA   - Mulliken gross atomic population
  ZA   - Total nuclear charge
  QA   - Mulliken gross atomic charge
  VA   - Mayer's total valence
  BVA  - Mayer's bonded valence
  FA   - Mayer's free valence

  ATOM       NA         ZA         QA         VA         BVA        FA
  0 S     15.9094    16.0000     0.0906     2.4758     2.4758    -0.0000
  1 C      6.0813     6.0000    -0.0813     3.8370     3.8370    -0.0000
  2 C      6.1078     6.0000    -0.1078     4.0209     4.0209    -0.0000
  3 C      5.9861     6.0000     0.0139     3.9148     3.9148    -0.0000
  4 C      6.1281     6.0000    -0.1281     3.9182     3.9182    -0.0000
  5 H      0.9782     1.0000     0.0218     1.0002     1.0002     0.0000
  6 C      5.9301     6.0000     0.0699     3.9536     3.9536    -0.0000
  7 H      0.9692     1.0000     0.0308     0.9890     0.9890    -0.0000
  8 H      0.9521     1.0000     0.0479     0.9789     0.9789    -0.0000
  9 C      6.0970     6.0000    -0.0970     4.0918     4.0918    -0.0000
 10 H      0.9915     1.0000     0.0085     0.9822     0.9822    -0.0000
 11 H      0.9929     1.0000     0.0071     0.9805     0.9805    -0.0000
 12 C      6.0399     6.0000    -0.0399     3.9933     3.9933     0.0000
 13 H      0.9589     1.0000     0.0411     0.9972     0.9972     0.0000
 14 H      0.9635     1.0000     0.0365     0.9864     0.9864     0.0000
 15 H      0.9549     1.0000     0.0451     0.9856     0.9856     0.0000
 16 S     15.8838    16.0000     0.1162     2.5566     2.5566     0.0000
 17 C      6.1011     6.0000    -0.1011     3.8497     3.8497    -0.0000
 18 C      6.0139     6.0000    -0.0139     3.9429     3.9429     0.0000
 19 C      6.0296     6.0000    -0.0296     3.9508     3.9508    -0.0000
 20 C      6.1579     6.0000    -0.1579     3.9028     3.9028    -0.0000
 21 H      1.0038     1.0000    -0.0038     1.0020     1.0020     0.0000
 22 C      5.9039     6.0000     0.0961     3.9590     3.9590    -0.0000
 23 H      0.9874     1.0000     0.0126     0.9989     0.9989    -0.0000
 24 H      0.9789     1.0000     0.0211     0.9877     0.9877    -0.0000
 25 C      6.0914     6.0000    -0.0914     4.0832     4.0832     0.0000
 26 H      0.9582     1.0000     0.0418     0.9811     0.9811     0.0000
 27 H      0.9622     1.0000     0.0378     0.9719     0.9719     0.0000
 28 C      6.0920     6.0000    -0.0920     3.9782     3.9782    -0.0000
 29 H      0.9463     1.0000     0.0537     0.9863     0.9863    -0.0000
 30 H      0.9572     1.0000     0.0428     0.9838     0.9838    -0.0000
 31 H      0.9620     1.0000     0.0380     0.9851     0.9851    -0.0000
 32 H      0.9824     1.0000     0.0176     1.0180     1.0180    -0.0000
 33 H      0.9470     1.0000     0.0530     0.9914     0.9914    -0.0000

  Mayer bond orders larger than 0.100000
B(  0-S ,  1-C ) :   1.1259 B(  0-S ,  4-C ) :   1.1454 B(  1-C ,  2-C ) :   1.5969 
B(  1-C ,  4-C ) :   0.1021 B(  1-C , 32-H ) :   0.9738 B(  2-C ,  3-C ) :   1.2707 
B(  2-C ,  6-C ) :   1.0114 B(  3-C ,  4-C ) :   1.5467 B(  3-C ,  5-H ) :   0.9841 
B(  4-C , 20-C ) :   1.0773 B(  6-C ,  7-H ) :   0.9506 B(  6-C ,  8-H ) :   0.9304 
B(  6-C ,  9-C ) :   1.0734 B(  9-C , 10-H ) :   0.9582 B(  9-C , 11-H ) :   0.9534 
B(  9-C , 12-C ) :   1.0627 B( 12-C , 13-H ) :   0.9796 B( 12-C , 14-H ) :   0.9782 
B( 12-C , 15-H ) :   0.9806 B( 16-S , 17-C ) :   1.1889 B( 16-S , 20-C ) :   1.1649 
B( 17-C , 18-C ) :   1.5780 B( 17-C , 20-C ) :   0.1003 B( 17-C , 33-H ) :   0.9672 
B( 18-C , 19-C ) :   1.2369 B( 18-C , 21-H ) :   1.0180 B( 19-C , 20-C ) :   1.5264 
B( 19-C , 22-C ) :   1.0505 B( 22-C , 23-H ) :   0.9227 B( 22-C , 24-H ) :   0.9371 
B( 22-C , 25-C ) :   1.0710 B( 25-C , 26-H ) :   0.9563 B( 25-C , 27-H ) :   0.9531 
B( 25-C , 28-C ) :   1.0763 B( 28-C , 29-H ) :   0.9706 B( 28-C , 30-H ) :   0.9726 
B( 28-C , 31-H ) :   0.9718 

-------
TIMINGS
-------

Total SCF time: 0 days 0 hours 0 min 28 sec 

Total time                  ....      28.695 sec
Sum of individual times     ....      27.683 sec  ( 96.5%)

Fock matrix formation       ....      25.851 sec  ( 90.1%)
  XC integration            ....       1.932 sec  (  7.5% of F)
    Basis function eval.    ....       0.225 sec  ( 11.7% of XC)
    Density eval.           ....       0.163 sec  (  8.4% of XC)
    XC-Functional eval.     ....       0.196 sec  ( 10.1% of XC)
    XC-Potential eval.      ....       0.197 sec  ( 10.2% of XC)
Diagonalization             ....       0.131 sec  (  0.5%)
Density matrix formation    ....       0.020 sec  (  0.1%)
Population analysis         ....       0.050 sec  (  0.2%)
Initial guess               ....       0.193 sec  (  0.7%)
Orbital Transformation      ....       0.000 sec  (  0.0%)
Orbital Orthonormalization  ....       0.000 sec  (  0.0%)
DIIS solution               ....       0.149 sec  (  0.5%)
SOSCF solution              ....       0.140 sec  (  0.5%)
Grid generation             ....       1.149 sec  (  4.0%)


-------------------------------------------------------------------------------
                          DFT DISPERSION CORRECTION                            
                                                                               
                              DFTD3 V3.1  Rev 1                                
                              USING zero damping                               
-------------------------------------------------------------------------------
The omegaB97X-D3 functional is recognized. Fit by Chai et al.
Active option DFTDOPT                   ...         3   

molecular C6(AA) [au] = 14166.830372 


            DFT-D V3
 parameters
 s6 scaling factor         :     1.0000 
 rs6 scaling factor        :     1.2810 
 s8 scaling factor         :     1.0000 
 rs8 scaling factor        :     1.0940 
 Damping factor alpha6     :    14.0000 
 Damping factor alpha8     :    16.0000 
 ad hoc parameters k1-k3   :    16.0000     1.3333    -4.0000 

 Edisp/kcal,au: -8.964204883229  -0.014285368265 
 E6   /kcal   :  -4.150193944 
 E8   /kcal   :  -4.814010939 
 % E8         :  53.702598296 

-------------------------   ----------------
Dispersion correction           -0.014285368
-------------------------   ----------------


-------------------------   --------------------
FINAL SINGLE POINT ENERGY     -1339.865691828685
-------------------------   --------------------


                            ***************************************
                            *     ORCA property calculations      *
                            ***************************************

                                    ---------------------
                                    Active property flags
                                    ---------------------
   (+) Dipole Moment


------------------------------------------------------------------------------
                       ORCA ELECTRIC PROPERTIES CALCULATION
------------------------------------------------------------------------------

Dipole Moment Calculation                       ... on
Quadrupole Moment Calculation                   ... off
Polarizability Calculation                      ... off
GBWName                                         ... config_6661.gbw
Electron density file                           ... config_6661.scfp
The origin for moment calculation is the CENTER OF MASS  = (-76.492279, 27.066515 147.827882)

-------------
DIPOLE MOMENT
-------------
                                X             Y             Z
Electronic contribution:     -9.94725      10.69800      12.56782
Nuclear contribution   :      9.99182     -10.91447     -13.00031
                        -----------------------------------------
Total Dipole Moment    :      0.04457      -0.21647      -0.43248
                        -----------------------------------------
Magnitude (a.u.)       :      0.48569
Magnitude (Debye)      :      1.23451



--------------------
Rotational spectrum 
--------------------
 
Rotational constants in cm-1:     0.023421     0.007519     0.006620 
Rotational constants in MHz :   702.151286   225.425139   198.465478 

 Dipole components along the rotational axes: 
x,y,z [a.u.] :    -0.065169     0.349845     0.330532 
x,y,z [Debye]:    -0.165647     0.889236     0.840146 

 

Timings for individual modules:

Sum of individual times         ...       29.779 sec (=   0.496 min)
GTO integral calculation        ...        0.748 sec (=   0.012 min)   2.5 %
SCF iterations                  ...       29.031 sec (=   0.484 min)  97.5 %
                             ****ORCA TERMINATED NORMALLY****
TOTAL RUN TIME: 0 days 0 hours 0 minutes 30 seconds 424 msec
