
                                 *****************
                                 * O   R   C   A *
                                 *****************

           --- An Ab Initio, DFT and Semiempirical electronic structure package ---

                  #######################################################
                  #                        -***-                        #
                  #          Department of theory and spectroscopy      #
                  #               Directorship: Frank Neese             #
                  #        Max Planck Institute fuer Kohlenforschung    #
                  #                Kaiser Wilhelm Platz 1               #
                  #                 D-45470 Muelheim/Ruhr               #
                  #                      Germany                        #
                  #                                                     #
                  #                  All rights reserved                #
                  #                        -***-                        #
                  #######################################################


                         Program Version 4.2.1 -  RELEASE  -


 With contributions from (in alphabetic order):
   Daniel Aravena         : Magnetic Suceptibility
   Michael Atanasov       : Ab Initio Ligand Field Theory (pilot matlab implementation)
   Alexander A. Auer      : GIAO ZORA, VPT2
   Ute Becker             : Parallelization
   Giovanni Bistoni       : ED, misc. LED, open-shell LED, HFLD
   Martin Brehm           : Molecular dynamics
   Dmytro Bykov           : SCF Hessian
   Vijay G. Chilkuri      : MRCI spin determinant printing, contributions to CSF-ICE
   Dipayan Datta          : RHF DLPNO-CCSD density
   Achintya Kumar Dutta   : EOM-CC, STEOM-CC
   Dmitry Ganyushin       : Spin-Orbit,Spin-Spin,Magnetic field MRCI
   Miquel Garcia          : C-PCM Hessian, Gaussian charge scheme
   Yang Guo               : DLPNO-NEVPT2, CIM, IAO-localization
   Andreas Hansen         : Spin unrestricted coupled pair/coupled cluster methods
   Benjamin Helmich-Paris : CASSCF linear response (MC-RPA)
   Lee Huntington         : MR-EOM, pCC
   Robert Izsak           : Overlap fitted RIJCOSX, COSX-SCS-MP3, EOM
   Christian Kollmar      : KDIIS, OOCD, Brueckner-CCSD(T), CCSD density
   Simone Kossmann        : Meta GGA functionals, TD-DFT gradient, OOMP2, MP2 Hessian
   Martin Krupicka        : AUTO-CI
   Lucas Lang             : DCDCAS
   Dagmar Lenk            : GEPOL surface, SMD
   Dimitrios Liakos       : Extrapolation schemes; Compound Job, initial MDCI parallelization
   Dimitrios Manganas     : Further ROCIS development; embedding schemes
   Dimitrios Pantazis     : SARC Basis sets
   Taras Petrenko         : DFT Hessian,TD-DFT gradient, ASA, ECA, R-Raman, ABS, FL, XAS/XES, NRVS
   Peter Pinski           : DLPNO-MP2, DLPNO-MP2 Gradient
   Christoph Reimann      : Effective Core Potentials
   Marius Retegan         : Local ZFS, SOC
   Christoph Riplinger    : Optimizer, TS searches, QM/MM, DLPNO-CCSD(T), (RO)-DLPNO pert. Triples
   Tobias Risthaus        : Range-separated hybrids, TD-DFT gradient, RPA, STAB
   Michael Roemelt        : Original ROCIS implementation
   Masaaki Saitow         : Open-shell DLPNO-CCSD energy and density
   Barbara Sandhoefer     : DKH picture change effects
   Avijit Sen             : IP-ROCIS
   Kantharuban Sivalingam : CASSCF convergence, NEVPT2, FIC-MRCI
   Bernardo de Souza      : ESD, SOC TD-DFT
   Georgi Stoychev        : AutoAux, RI-MP2 NMR
   Willem Van den Heuvel  : Paramagnetic NMR
   Boris Wezisla          : Elementary symmetry handling
   Frank Wennmohs         : Technical directorship


 We gratefully acknowledge several colleagues who have allowed us to
 interface, adapt or use parts of their codes:
   Stefan Grimme, W. Hujo, H. Kruse,             : VdW corrections, initial TS optimization,
                  C. Bannwarth                     DFT functionals, gCP, sTDA/sTD-DF
   Ed Valeev, F. Pavosevic, A. Kumar             : LibInt (2-el integral package), F12 methods
   Garnet Chan, S. Sharma, J. Yang, R. Olivares  : DMRG
   Ulf Ekstrom                                   : XCFun DFT Library
   Mihaly Kallay                                 : mrcc  (arbitrary order and MRCC methods)
   Andreas Klamt, Michael Diedenhofen            : otool_cosmo (COSMO solvation model)
   Jiri Pittner, Ondrej Demel                    : Mk-CCSD
   Frank Weinhold                                : gennbo (NPA and NBO analysis)
   Christopher J. Cramer and Donald G. Truhlar   : smd solvation model
   Lars Goerigk                                  : TD-DFT with DH, B97 family of functionals
   V. Asgeirsson, H. Jonsson                     : NEB implementation
   FAccTs GmbH                                   : IRC, NEB, NEB-TS, Multilevel, MM, QM/MM, CI optimization
   S Lehtola, MJT Oliveira, MAL Marques          : LibXC Library


 Your calculation uses the libint2 library for the computation of 2-el integrals
 For citations please refer to: http://libint.valeyev.net

 Your ORCA version has been built with support for libXC version: 4.2.3
 For citations please refer to: https://tddft.org/programs/libxc/

 This ORCA versions uses:
   CBLAS   interface :  Fast vector & matrix operations
   LAPACKE interface :  Fast linear algebra routines
   SCALAPACK package :  Parallel linear algebra routines


Your calculation utilizes the atom-pairwise dispersion correction
with the zero-damping scheme (D30)
Cite in your paper:
S.Grimme, J.Antony, S.Ehrlich and H.Krieg, J.Chem.Phys., 132, (2010), 154104 
   

XCFun DFT library Copyright 2009-2010 Ulf Ekstrom and contributors.
See http://admol.org/xcfun for more information. This is free soft-
ware; see the source code for copying conditions. There is ABSOLUTELY
NO WARRANTY; not even for MERCHANTABILITY or FITNESS FOR A PARTICULAR
PURPOSE. For details see the documentation. Scientific users of this 
library should cite U. Ekstrom, L. Visscher, R. Bast, A. J. Thorvald-
sen and K. Ruud; J.Chem.Theor.Comp. 2010, DOI: 10.1021/ct100117s
XCFun Version 0.99 
----- Orbital basis set information -----
Your calculation utilizes the basis: def2-SVP
   F. Weigend and R. Ahlrichs, Phys. Chem. Chem. Phys. 7, 3297 (2005).

================================================================================
                                        WARNINGS
                       Please study these warnings very carefully!
================================================================================


INFO   : the flag for use of LIBINT has been found!

================================================================================
                                       INPUT FILE
================================================================================
NAME = config_6575.inp
|  1> ! wB97X-D3 SP def2-SVP
|  2> %pal
|  3> nprocs 16
|  4> end
|  5> 
|  6> * xyz 0 1
|  7> S 	 -41.7702 	 24.5911 	 79.4436 	 
|  8> C 	 -41.2592 	 26.1801 	 79.8898 	 
|  9> C 	 -39.9918 	 26.5153 	 79.3223 	 
| 10> C 	 -39.4978 	 25.4392 	 78.547 	 
| 11> C 	 -40.4001 	 24.3426 	 78.513 	 
| 12> H 	 -38.5665 	 25.4313 	 77.9773 	 
| 13> C 	 -39.2757 	 27.835 	 79.5655 	 
| 14> H 	 -39.9781 	 28.5498 	 79.2357 	 
| 15> H 	 -38.4213 	 27.7845 	 78.7788 	 
| 16> C 	 -38.831 	 28.0792 	 81.0185 	 
| 17> H 	 -39.7733 	 28.2256 	 81.594 	 
| 18> H 	 -38.3487 	 27.1611 	 81.4386 	 
| 19> C 	 -37.8945 	 29.2518 	 81.1981 	 
| 20> H 	 -37.474 	 29.4293 	 82.2243 	 
| 21> H 	 -37.0106 	 29.1583 	 80.5428 	 
| 22> H 	 -38.4317 	 30.1701 	 80.9723 	 
| 23> S 	 -39.8775 	 21.5704 	 78.7602 	 
| 24> C 	 -40.1337 	 20.613 	 77.3385 	 
| 25> C 	 -40.0328 	 21.3823 	 76.26 	 
| 26> C 	 -40.2167 	 22.7933 	 76.5241 	 
| 27> C 	 -40.2203 	 23.0337 	 77.8548 	 
| 28> H 	 -39.9083 	 20.9899 	 75.2822 	 
| 29> C 	 -40.4263 	 23.7974 	 75.5208 	 
| 30> H 	 -39.8525 	 23.6428 	 74.6199 	 
| 31> H 	 -40.0095 	 24.7325 	 75.8492 	 
| 32> C 	 -41.8898 	 23.8305 	 75.0055 	 
| 33> H 	 -42.1617 	 22.7831 	 74.6162 	 
| 34> H 	 -42.0228 	 24.452 	 74.171 	 
| 35> C 	 -42.8755 	 24.202 	 76.1293 	 
| 36> H 	 -42.5314 	 25.0436 	 76.6603 	 
| 37> H 	 -43.0007 	 23.3101 	 76.8126 	 
| 38> H 	 -43.8285 	 24.4264 	 75.7102 	 
| 39> H 	 -41.7533 	 27.0131 	 80.3862 	 
| 40> H 	 -39.9743 	 19.5943 	 77.3353 	 
| 41> *
| 42> 
| 43>                          ****END OF INPUT****
================================================================================

                       ****************************
                       * Single Point Calculation *
                       ****************************

---------------------------------
CARTESIAN COORDINATES (ANGSTROEM)
---------------------------------
  S    -41.770200   24.591100   79.443600
  C    -41.259200   26.180100   79.889800
  C    -39.991800   26.515300   79.322300
  C    -39.497800   25.439200   78.547000
  C    -40.400100   24.342600   78.513000
  H    -38.566500   25.431300   77.977300
  C    -39.275700   27.835000   79.565500
  H    -39.978100   28.549800   79.235700
  H    -38.421300   27.784500   78.778800
  C    -38.831000   28.079200   81.018500
  H    -39.773300   28.225600   81.594000
  H    -38.348700   27.161100   81.438600
  C    -37.894500   29.251800   81.198100
  H    -37.474000   29.429300   82.224300
  H    -37.010600   29.158300   80.542800
  H    -38.431700   30.170100   80.972300
  S    -39.877500   21.570400   78.760200
  C    -40.133700   20.613000   77.338500
  C    -40.032800   21.382300   76.260000
  C    -40.216700   22.793300   76.524100
  C    -40.220300   23.033700   77.854800
  H    -39.908300   20.989900   75.282200
  C    -40.426300   23.797400   75.520800
  H    -39.852500   23.642800   74.619900
  H    -40.009500   24.732500   75.849200
  C    -41.889800   23.830500   75.005500
  H    -42.161700   22.783100   74.616200
  H    -42.022800   24.452000   74.171000
  C    -42.875500   24.202000   76.129300
  H    -42.531400   25.043600   76.660300
  H    -43.000700   23.310100   76.812600
  H    -43.828500   24.426400   75.710200
  H    -41.753300   27.013100   80.386200
  H    -39.974300   19.594300   77.335300

----------------------------
CARTESIAN COORDINATES (A.U.)
----------------------------
  NO LB      ZA    FRAG     MASS         X           Y           Z
   0 S    16.0000    0    32.060  -78.934239   46.470444  150.126647
   1 C     6.0000    0    12.011  -77.968589   49.473219  150.969843
   2 C     6.0000    0    12.011  -75.573550   50.106655  149.897423
   3 C     6.0000    0    12.011  -74.640025   48.073121  148.432319
   4 C     6.0000    0    12.011  -76.345125   46.000847  148.368068
   5 H     1.0000    0     1.008  -72.880123   48.058192  147.355742
   6 C     6.0000    0    12.011  -74.220317   52.600527  150.357005
   7 H     1.0000    0     1.008  -75.547660   53.951303  149.733773
   8 H     1.0000    0     1.008  -72.605735   52.505096  148.870357
   9 C     6.0000    0    12.011  -73.379956   53.061998  153.102777
  10 H     1.0000    0     1.008  -75.160644   53.338654  154.190314
  11 H     1.0000    0     1.008  -72.468541   51.327040  153.896651
  12 C     6.0000    0    12.011  -71.610227   55.277891  153.442172
  13 H     1.0000    0     1.008  -70.815597   55.613317  155.381409
  14 H     1.0000    0     1.008  -69.939898   55.101202  152.203834
  15 H     1.0000    0     1.008  -72.625388   57.013226  153.015471
  16 S    16.0000    0    32.060  -75.357554   40.762149  148.835208
  17 C     6.0000    0    12.011  -75.841702   38.952925  146.148585
  18 C     6.0000    0    12.011  -75.651028   40.406691  144.110515
  19 C     6.0000    0    12.011  -75.998549   43.073095  144.609592
  20 C     6.0000    0    12.011  -76.005352   43.527385  147.124250
  21 H     1.0000    0     1.008  -75.415757   39.665163  142.262741
  22 C     6.0000    0    12.011  -76.394636   44.970569  142.713629
  23 H     1.0000    0     1.008  -75.310311   44.678417  141.011175
  24 H     1.0000    0     1.008  -75.606998   46.737652  143.334215
  25 C     6.0000    0    12.011  -79.160250   45.033119  141.739854
  26 H     1.0000    0     1.008  -79.674066   43.053819  141.004183
  27 H     1.0000    0     1.008  -79.411583   46.207583  140.162877
  28 C     6.0000    0    12.011  -81.022953   45.735152  143.863528
  29 H     1.0000    0     1.008  -80.372698   47.325545  144.866972
  30 H     1.0000    0     1.008  -81.259547   44.049705  145.154778
  31 H     1.0000    0     1.008  -82.823862   46.159206  143.071544
  32 H     1.0000    0     1.008  -78.902302   51.047361  151.907903
  33 H     1.0000    0     1.008  -75.540479   37.027861  146.142537

--------------------------------
INTERNAL COORDINATES (ANGSTROEM)
--------------------------------
 S      0   0   0     0.000000000000     0.00000000     0.00000000
 C      1   0   0     1.727754739539     0.00000000     0.00000000
 C      2   1   0     1.428537031372   112.06175686     0.00000000
 C      3   2   1     1.415315265232   110.41862924   359.78494990
 C      4   3   2     1.420504435051   112.23204201     1.55026805
 H      4   3   2     1.091760133912   126.09240774   178.11403779
 C      3   2   1     1.521036994948   123.90101154   181.42795734
 H      7   3   2     1.055022672742   102.96849548   302.34005270
 H      7   3   2     1.162517311699   101.54420771   190.69925512
 C      7   3   2     1.539025902966   115.12906072    64.93692917
 H     10   7   3     1.113805413885   105.32033819   291.06515557
 H     10   7   3     1.118930252518   110.41495208    45.27631749
 C     10   7   3     1.511383197604   114.47750138   168.66698352
 H     13  10   7     1.123126413188   117.59265370   184.63318553
 H     13  10   7     1.104282368781   111.08564718   305.36229380
 H     13  10   7     1.087586488515   108.92633085    66.80014300
 S      5   4   3     2.831838879597   129.52463307   223.24374034
 C     17   5   4     1.733056285872   116.22570915   248.03913826
 C     18  17   5     1.328595329662   109.56137586    24.09382792
 C     19  18  17     1.447234956736   114.00084648   339.38740508
 C     20  19  18     1.352245395629   110.68585730    10.70516856
 H     19  18  17     1.060929238922   122.88145288   164.15807434
 C     20  19  18     1.434837921160   124.97643307   193.26715778
 H     23  20  19     1.079244369918   113.94016762   322.25219454
 H     23  20  19     1.075165480287   109.78112931   211.06904119
 C     23  20  19     1.551922018015   112.63494517    79.28695656
 H     26  23  20     1.150013417313   108.41740232   303.84387266
 H     26  23  20     1.048971639273   113.35050506   189.03034671
 C     26  23  20     1.540306196832   111.49168096    63.07396870
 H     29  26  23     1.052927523622   110.58434627    47.59700213
 H     29  26  23     1.130512954371   108.75789417   285.19266827
 H     29  26  23     1.064992568049   109.65460167   167.59157330
 H      2   1   3     1.088318322000   133.42863111   169.88798221
 H     18  17   5     1.031100523712   121.70076191   180.33416357

---------------------------
INTERNAL COORDINATES (A.U.)
---------------------------
 S      0   0   0     0.000000000000     0.00000000     0.00000000
 C      1   0   0     3.264983284313     0.00000000     0.00000000
 C      2   1   0     2.699543761457   112.06175686     0.00000000
 C      3   2   1     2.674558244447   110.41862924   359.78494990
 C      4   3   2     2.684364354267   112.23204201     1.55026805
 H      4   3   2     2.063127657027   126.09240774   178.11403779
 C      3   2   1     2.874343360014   123.90101154   181.42795734
 H      7   3   2     1.993703916560   102.96849548   302.34005270
 H      7   3   2     2.196839345054   101.54420771   190.69925512
 C      7   3   2     2.908337469616   115.12906072    64.93692917
 H     10   7   3     2.104787198722   105.32033819   291.06515557
 H     10   7   3     2.114471740218   110.41495208    45.27631749
 C     10   7   3     2.856100326882   114.47750138   168.66698352
 H     13  10   7     2.122401334698   117.59265370   184.63318553
 H     13  10   7     2.086791251513   111.08564718   305.36229380
 H     13  10   7     2.055240610246   108.92633085    66.80014300
 S      5   4   3     5.351399937830   129.52463307   223.24374034
 C     17   5   4     3.275001754969   116.22570915   248.03913826
 C     18  17   5     2.510681315868   109.56137586    24.09382792
 C     19  18  17     2.734877719669   114.00084648   339.38740508
 C     20  19  18     2.555373463595   110.68585730    10.70516856
 H     19  18  17     2.004865709032   122.88145288   164.15807434
 C     20  19  18     2.711450717558   124.97643307   193.26715778
 H     23  20  19     2.039476290722   113.94016762   322.25219454
 H     23  20  19     2.031768306388   109.78112931   211.06904119
 C     23  20  19     2.932707595251   112.63494517    79.28695656
 H     26  23  20     2.173210409057   108.41740232   303.84387266
 H     26  23  20     1.982269120477   113.35050506   189.03034671
 C     26  23  20     2.910756874395   111.49168096    63.07396870
 H     29  26  23     1.989744658513   110.58434627    47.59700213
 H     29  26  23     2.136359874611   108.75789417   285.19266827
 H     29  26  23     2.012544288274   109.65460167   167.59157330
 H      2   1   3     2.056623575108   133.42863111   169.88798221
 H     18  17   5     1.948497606359   121.70076191   180.33416357

---------------------
BASIS SET INFORMATION
---------------------
There are 3 groups of distinct atoms

 Group   1 Type S   : 10s7p1d contracted to 4s3p1d pattern {5311/511/1}
 Group   2 Type C   : 7s4p1d contracted to 3s2p1d pattern {511/31/1}
 Group   3 Type H   : 4s1p contracted to 2s1p pattern {31/1}

Atom   0S    basis set group =>   1
Atom   1C    basis set group =>   2
Atom   2C    basis set group =>   2
Atom   3C    basis set group =>   2
Atom   4C    basis set group =>   2
Atom   5H    basis set group =>   3
Atom   6C    basis set group =>   2
Atom   7H    basis set group =>   3
Atom   8H    basis set group =>   3
Atom   9C    basis set group =>   2
Atom  10H    basis set group =>   3
Atom  11H    basis set group =>   3
Atom  12C    basis set group =>   2
Atom  13H    basis set group =>   3
Atom  14H    basis set group =>   3
Atom  15H    basis set group =>   3
Atom  16S    basis set group =>   1
Atom  17C    basis set group =>   2
Atom  18C    basis set group =>   2
Atom  19C    basis set group =>   2
Atom  20C    basis set group =>   2
Atom  21H    basis set group =>   3
Atom  22C    basis set group =>   2
Atom  23H    basis set group =>   3
Atom  24H    basis set group =>   3
Atom  25C    basis set group =>   2
Atom  26H    basis set group =>   3
Atom  27H    basis set group =>   3
Atom  28C    basis set group =>   2
Atom  29H    basis set group =>   3
Atom  30H    basis set group =>   3
Atom  31H    basis set group =>   3
Atom  32H    basis set group =>   3
Atom  33H    basis set group =>   3


           ************************************************************
           *        Program running with 16 parallel MPI-processes    *
           *              working on a common directory               *
           ************************************************************
------------------------------------------------------------------------------
                           ORCA GTO INTEGRAL CALCULATION
------------------------------------------------------------------------------

                         BASIS SET STATISTICS AND STARTUP INFO

 # of primitive gaussian shells          ...  294
 # of primitive gaussian functions       ...  534
 # of contracted shells                  ...  154
 # of contracted basis functions         ...  322
 Highest angular momentum                ...    2
 Maximum contraction depth               ...    5
 Integral package used                   ... LIBINT
 Integral threshhold            Thresh   ...  1.000e-10
 Primitive cut-off              TCut     ...  1.000e-11


------------------------------ INTEGRAL EVALUATION ----------------------------


 * One electron integrals 
 Pre-screening matrix                    ... done
 Shell pair data                         ... done (   0.003 sec)



           ************************************************************
           *        Program running with 16 parallel MPI-processes    *
           *              working on a common directory               *
           ************************************************************
-------------------------------------------------------------------------------
                                 ORCA SCF
-------------------------------------------------------------------------------

------------
SCF SETTINGS
------------
Hamiltonian:
 Density Functional     Method          .... DFT(GTOs)
 Exchange Functional    Exchange        .... WB97X-D3
 Correlation Functional Correlation     .... WB97X-D3
 Gradients option       PostSCFGGA      .... off
 Hybrid DFT is turned on
   Fraction HF Exchange ScalHFX         ....  0.195728
   Scaling of DF-GGA-X  ScalDFX         ....  0.000000
   Scaling of DF-GGA-C  ScalDFC         ....  1.000000
   Scaling of DF-LDA-C  ScalLDAC        ....  1.000000
   Perturbative correction              ....  0.000000
   Density functional embedding theory  .... OFF
 Long-range corrected/Screened/Range-Separated Hybrid DFT is turned on
   Amount of maximum screened exact exchange              ....  0.804272
   Range separation parameter mu (erf(mu*r12)/r12)        ....  0.250000


General Settings:
 Integral files         IntName         .... config_6575
 Hartree-Fock type      HFTyp           .... RHF
 Total Charge           Charge          ....    0
 Multiplicity           Mult            ....    1
 Number of Electrons    NEL             ....  134
 Basis Dimension        Dim             ....  322
 Nuclear Repulsion      ENuc            ....   1305.4438128960 Eh

Convergence Acceleration:
 DIIS                   CNVDIIS         .... on
   Start iteration      DIISMaxIt       ....    12
   Startup error        DIISStart       ....  0.200000
   # of expansion vecs  DIISMaxEq       ....     5
   Bias factor          DIISBfac        ....   1.050
   Max. coefficient     DIISMaxC        ....  10.000
 Newton-Raphson         CNVNR           .... off
 SOSCF                  CNVSOSCF        .... on
   Start iteration      SOSCFMaxIt      ....   150
   Startup grad/error   SOSCFStart      ....  0.003300
 Level Shifting         CNVShift        .... on
   Level shift para.    LevelShift      ....    0.2500
   Turn off err/grad.   ShiftErr        ....    0.0010
 Zerner damping         CNVZerner       .... off
 Static damping         CNVDamp         .... on
   Fraction old density DampFac         ....    0.7000
   Max. Damping (<1)    DampMax         ....    0.9800
   Min. Damping (>=0)   DampMin         ....    0.0000
   Turn off err/grad.   DampErr         ....    0.1000
 Fernandez-Rico         CNVRico         .... off

SCF Procedure:
 Maximum # iterations   MaxIter         ....   125
 SCF integral mode      SCFMode         .... Direct
   Integral package                     .... LIBINT
 Reset frequency        DirectResetFreq ....    20
 Integral Threshold     Thresh          ....  1.000e-10 Eh
 Primitive CutOff       TCut            ....  1.000e-11 Eh

Convergence Tolerance:
 Convergence Check Mode ConvCheckMode   .... Total+1el-Energy
 Convergence forced     ConvForced      .... 0
 Energy Change          TolE            ....  1.000e-06 Eh
 1-El. energy change                    ....  1.000e-03 Eh
 Orbital Gradient       TolG            ....  5.000e-05
 Orbital Rotation angle TolX            ....  5.000e-05
 DIIS Error             TolErr          ....  1.000e-06


Diagonalization of the overlap matrix:
Smallest eigenvalue                        ... 6.152e-04
Time for diagonalization                   ...    0.015 sec
Threshold for overlap eigenvalues          ... 1.000e-08
Number of eigenvalues below threshold      ... 0
Time for construction of square roots      ...    0.230 sec
Total time needed                          ...    0.246 sec

-------------------
DFT GRID GENERATION
-------------------

General Integration Accuracy     IntAcc      ...  4.340
Radial Grid Type                 RadialGrid  ... Gauss-Chebyshev
Angular Grid (max. acc.)         AngularGrid ... Lebedev-110
Angular grid pruning method      GridPruning ... 3 (G Style)
Weight generation scheme         WeightScheme... Becke
Basis function cutoff            BFCut       ...    1.0000e-10
Integration weight cutoff        WCut        ...    1.0000e-14
Grids for H and He will be reduced by one unit

# of grid points (after initial pruning)     ...  41088 (   0.0 sec)
# of grid points (after weights+screening)   ...  36930 (   0.0 sec)
nearest neighbour list constructed           ...    0.0 sec
Grid point re-assignment to atoms done       ...    0.0 sec
Grid point division into batches done        ...    0.0 sec
Reduced shell lists constructed in    0.1 sec

Total number of grid points                  ...    36930
Total number of batches                      ...      592
Average number of points per batch           ...       62
Average number of grid points per atom       ...     1086
Average number of shells per batch           ...    85.16 (55.30%)
Average number of basis functions per batch  ...   168.32 (52.27%)
Average number of large shells per batch     ...    56.37 (66.19%)
Average number of large basis fcns per batch ...   113.16 (67.23%)
Maximum spatial batch extension              ...  19.12, 11.44, 17.30 au
Average spatial batch extension              ...   0.21,  0.17,  0.22 au

Time for grid setup =    0.205 sec

------------------------------
INITIAL GUESS: MODEL POTENTIAL
------------------------------
Loading Hartree-Fock densities                     ... done
Calculating cut-offs                               ... done
Setting up the integral package                    ... done
Initializing the effective Hamiltonian             ... done
Starting the Coulomb interaction                   ... done (   0.0 sec)
Reading the grid                                   ... done
Mapping shells                                     ... done
Starting the XC term evaluation                    ... done (   0.0 sec)
  promolecular density results
     # of electrons  =    133.990176245
     EX              =   -126.771691644
     EC              =     -4.630829234
     EX+EC           =   -131.402520877
Transforming the Hamiltonian                       ... done (   0.0 sec)
Diagonalizing the Hamiltonian                      ... done (   0.0 sec)
Back transforming the eigenvectors                 ... done (   0.0 sec)
Now organizing SCF variables                       ... done
                      ------------------
                      INITIAL GUESS DONE (   0.4 sec)
                      ------------------
--------------
SCF ITERATIONS
--------------
ITER       Energy         Delta-E        Max-DP      RMS-DP      [F,P]     Damp
               ***  Starting incremental Fock matrix formation  ***
  0  -1339.4011967506   0.000000000000 0.06700334  0.00160952  0.1619016 0.7000
  1  -1339.5943099252  -0.193113174566 0.04477266  0.00117249  0.0974128 0.7000
                               ***Turning on DIIS***
  2  -1339.6881414908  -0.093831565661 0.09860711  0.00221231  0.0501689 0.0000
  3  -1339.8299360978  -0.141794606978 0.04342067  0.00099250  0.0369339 0.0000
  4  -1339.8600936636  -0.030157565800 0.00753505  0.00021041  0.0073874 0.0000
                      *** Initiating the SOSCF procedure ***
                           *** Shutting down DIIS ***
                      *** Re-Reading the Fockian *** 
                      *** Removing any level shift *** 
ITER      Energy       Delta-E        Grad      Rot      Max-DP    RMS-DP
  5  -1339.86105082  -0.0009571524  0.001142  0.001142  0.003325  0.000107
               *** Restarting incremental Fock matrix formation ***
  6  -1339.86123549  -0.0001846702  0.001147  0.003167  0.003242  0.000067
  7  -1339.86129746  -0.0000619773  0.000546  0.003547  0.003949  0.000066
  8  -1339.86131493  -0.0000174619  0.000237  0.000552  0.000737  0.000020
  9  -1339.86131844  -0.0000035104  0.000135  0.000347  0.000277  0.000008
 10  -1339.86131878  -0.0000003417  0.000068  0.000169  0.000154  0.000004
                  ***Gradient check signals convergence***
              ***Rediagonalizing the Fockian in SOSCF/NRSCF***

               *****************************************************
               *                     SUCCESS                       *
               *           SCF CONVERGED AFTER  11 CYCLES          *
               *****************************************************

Setting up the final grid:

General Integration Accuracy     IntAcc      ...  4.670
Radial Grid Type                 RadialGrid  ... Gauss-Chebyshev
Angular Grid (max. acc.)         AngularGrid ... Lebedev-302
Angular grid pruning method      GridPruning ... 3 (G Style)
Weight generation scheme         WeightScheme... Becke
Basis function cutoff            BFCut       ...    1.0000e-10
Integration weight cutoff        WCut        ...    1.0000e-14
Grids for H and He will be reduced by one unit

# of grid points (after initial pruning)     ... 161752 (   0.0 sec)
# of grid points (after weights+screening)   ... 142520 (   0.2 sec)
nearest neighbour list constructed           ...    0.0 sec
Grid point re-assignment to atoms done       ...    0.0 sec
Grid point division into batches done        ...    0.5 sec
Reduced shell lists constructed in    0.6 sec

Total number of grid points                  ...   142520
Total number of batches                      ...     2241
Average number of points per batch           ...       63
Average number of grid points per atom       ...     4192
Average number of shells per batch           ...    79.73 (51.77%)
Average number of basis functions per batch  ...   156.25 (48.53%)
Average number of large shells per batch     ...    51.56 (64.66%)
Average number of large basis fcns per batch ...   103.13 (66.00%)
Maximum spatial batch extension              ...  14.50, 10.41, 14.89 au
Average spatial batch extension              ...   0.12,  0.11,  0.12 au

Final grid set up in    1.2 sec
Final integration                            ... done (   0.4 sec)
Change in XC energy                          ...     0.006764330
Integrated number of electrons               ...   134.000318445
Previous integrated no of electrons          ...   134.000474765

----------------
TOTAL SCF ENERGY
----------------

Total Energy       :        -1339.85455468 Eh          -36459.29599 eV

Components:
Nuclear Repulsion  :         1305.44381290 Eh           35522.93210 eV
Electronic Energy  :        -2645.29836758 Eh          -71982.22809 eV
One Electron Energy:        -4427.59105021 Eh         -120480.87761 eV
Two Electron Energy:         1782.29268263 Eh           48498.64952 eV

Virial components:
Potential Energy   :        -2671.73225814 Eh          -72701.53082 eV
Kinetic Energy     :         1331.87770346 Eh           36242.23483 eV
Virial Ratio       :            2.00598918


DFT components:
N(Alpha)           :       67.000159222297 electrons
N(Beta)            :       67.000159222297 electrons
N(Total)           :      134.000318444593 electrons
E(XC)              :      -94.327340580071 Eh       
DFET-embed. en.    :        0.000000000000 Eh       

---------------
SCF CONVERGENCE
---------------

  Last Energy change         ...   -2.3635e-07  Tolerance :   1.0000e-06
  Last MAX-Density change    ...    3.3137e-05  Tolerance :   1.0000e-05
  Last RMS-Density change    ...    8.2575e-07  Tolerance :   1.0000e-06
  Last Orbital Gradient      ...    9.6187e-06  Tolerance :   5.0000e-05
  Last Orbital Rotation      ...    3.2392e-05  Tolerance :   5.0000e-05

             **** THE GBW FILE WAS UPDATED (config_6575.gbw) ****
             **** DENSITY FILE WAS UPDATED (config_6575.scfp) ****
             **** ENERGY FILE WAS UPDATED (config_6575.en.tmp) ****
             **** THE GBW FILE WAS UPDATED (config_6575.gbw) ****
             **** DENSITY FILE WAS UPDATED (config_6575.scfp) ****
----------------
ORBITAL ENERGIES
----------------

  NO   OCC          E(Eh)            E(eV) 
   0   2.0000     -88.973373     -2421.0886 
   1   2.0000     -88.957583     -2420.6589 
   2   2.0000     -10.324216      -280.9362 
   3   2.0000     -10.318085      -280.7694 
   4   2.0000     -10.311545      -280.5914 
   5   2.0000     -10.304326      -280.3950 
   6   2.0000     -10.301257      -280.3114 
   7   2.0000     -10.298231      -280.2291 
   8   2.0000     -10.296304      -280.1767 
   9   2.0000     -10.293991      -280.1137 
  10   2.0000     -10.290781      -280.0264 
  11   2.0000     -10.285427      -279.8807 
  12   2.0000     -10.284533      -279.8564 
  13   2.0000     -10.282612      -279.8041 
  14   2.0000     -10.279142      -279.7097 
  15   2.0000     -10.264622      -279.3146 
  16   2.0000      -8.088459      -220.0982 
  17   2.0000      -8.073157      -219.6818 
  18   2.0000      -6.046708      -164.5393 
  19   2.0000      -6.042580      -164.4270 
  20   2.0000      -6.039793      -164.3511 
  21   2.0000      -6.031748      -164.1322 
  22   2.0000      -6.027849      -164.0261 
  23   2.0000      -6.023474      -163.9071 
  24   2.0000      -1.013351       -27.5747 
  25   2.0000      -0.991039       -26.9676 
  26   2.0000      -0.914699       -24.8902 
  27   2.0000      -0.912077       -24.8189 
  28   2.0000      -0.867795       -23.6139 
  29   2.0000      -0.853625       -23.2283 
  30   2.0000      -0.842664       -22.9300 
  31   2.0000      -0.813272       -22.1302 
  32   2.0000      -0.785354       -21.3706 
  33   2.0000      -0.771208       -20.9856 
  34   2.0000      -0.701495       -19.0887 
  35   2.0000      -0.700021       -19.0485 
  36   2.0000      -0.697384       -18.9768 
  37   2.0000      -0.658982       -17.9318 
  38   2.0000      -0.636274       -17.3139 
  39   2.0000      -0.615761       -16.7557 
  40   2.0000      -0.603089       -16.4109 
  41   2.0000      -0.571582       -15.5535 
  42   2.0000      -0.563235       -15.3264 
  43   2.0000      -0.554014       -15.0755 
  44   2.0000      -0.541141       -14.7252 
  45   2.0000      -0.523662       -14.2496 
  46   2.0000      -0.516835       -14.0638 
  47   2.0000      -0.514215       -13.9925 
  48   2.0000      -0.502454       -13.6725 
  49   2.0000      -0.494512       -13.4564 
  50   2.0000      -0.492498       -13.4016 
  51   2.0000      -0.479689       -13.0530 
  52   2.0000      -0.472755       -12.8643 
  53   2.0000      -0.462339       -12.5809 
  54   2.0000      -0.456573       -12.4240 
  55   2.0000      -0.454114       -12.3571 
  56   2.0000      -0.441749       -12.0206 
  57   2.0000      -0.433605       -11.7990 
  58   2.0000      -0.430732       -11.7208 
  59   2.0000      -0.423475       -11.5234 
  60   2.0000      -0.418263       -11.3815 
  61   2.0000      -0.417149       -11.3512 
  62   2.0000      -0.410937       -11.1822 
  63   2.0000      -0.337082        -9.1725 
  64   2.0000      -0.330562        -8.9950 
  65   2.0000      -0.322504        -8.7758 
  66   2.0000      -0.299995        -8.1633 
  67   0.0000       0.039966         1.0875 
  68   0.0000       0.063491         1.7277 
  69   0.0000       0.108995         2.9659 
  70   0.0000       0.121210         3.2983 
  71   0.0000       0.130911         3.5623 
  72   0.0000       0.148098         4.0300 
  73   0.0000       0.155006         4.2179 
  74   0.0000       0.157105         4.2750 
  75   0.0000       0.165664         4.5079 
  76   0.0000       0.169153         4.6029 
  77   0.0000       0.182337         4.9616 
  78   0.0000       0.189402         5.1539 
  79   0.0000       0.197813         5.3828 
  80   0.0000       0.199447         5.4272 
  81   0.0000       0.207243         5.6394 
  82   0.0000       0.217133         5.9085 
  83   0.0000       0.223237         6.0746 
  84   0.0000       0.225559         6.1378 
  85   0.0000       0.228492         6.2176 
  86   0.0000       0.238682         6.4949 
  87   0.0000       0.242759         6.6058 
  88   0.0000       0.249761         6.7963 
  89   0.0000       0.250408         6.8139 
  90   0.0000       0.253362         6.8943 
  91   0.0000       0.263061         7.1583 
  92   0.0000       0.277168         7.5421 
  93   0.0000       0.306466         8.3394 
  94   0.0000       0.313762         8.5379 
  95   0.0000       0.315732         8.5915 
  96   0.0000       0.327571         8.9137 
  97   0.0000       0.334155         9.0928 
  98   0.0000       0.349257         9.5038 
  99   0.0000       0.372371        10.1327 
 100   0.0000       0.376921        10.2565 
 101   0.0000       0.403041        10.9673 
 102   0.0000       0.416475        11.3329 
 103   0.0000       0.431002        11.7282 
 104   0.0000       0.444704        12.1010 
 105   0.0000       0.457249        12.4424 
 106   0.0000       0.466638        12.6979 
 107   0.0000       0.476378        12.9629 
 108   0.0000       0.482530        13.1303 
 109   0.0000       0.491304        13.3691 
 110   0.0000       0.506403        13.7799 
 111   0.0000       0.508701        13.8424 
 112   0.0000       0.514279        13.9942 
 113   0.0000       0.519667        14.1409 
 114   0.0000       0.529734        14.4148 
 115   0.0000       0.535441        14.5701 
 116   0.0000       0.542610        14.7652 
 117   0.0000       0.552435        15.0325 
 118   0.0000       0.565186        15.3795 
 119   0.0000       0.571924        15.5628 
 120   0.0000       0.579965        15.7816 
 121   0.0000       0.587653        15.9908 
 122   0.0000       0.596264        16.2252 
 123   0.0000       0.611624        16.6431 
 124   0.0000       0.629096        17.1186 
 125   0.0000       0.630927        17.1684 
 126   0.0000       0.639325        17.3969 
 127   0.0000       0.649611        17.6768 
 128   0.0000       0.656583        17.8665 
 129   0.0000       0.666111        18.1258 
 130   0.0000       0.676540        18.4096 
 131   0.0000       0.679882        18.5005 
 132   0.0000       0.697346        18.9758 
 133   0.0000       0.698225        18.9997 
 134   0.0000       0.709456        19.3053 
 135   0.0000       0.722461        19.6592 
 136   0.0000       0.729046        19.8383 
 137   0.0000       0.735038        20.0014 
 138   0.0000       0.738194        20.0873 
 139   0.0000       0.742270        20.1982 
 140   0.0000       0.745770        20.2934 
 141   0.0000       0.752108        20.4659 
 142   0.0000       0.754900        20.5419 
 143   0.0000       0.761662        20.7259 
 144   0.0000       0.769184        20.9306 
 145   0.0000       0.775514        21.1028 
 146   0.0000       0.779637        21.2150 
 147   0.0000       0.781889        21.2763 
 148   0.0000       0.785335        21.3701 
 149   0.0000       0.791539        21.5389 
 150   0.0000       0.792387        21.5619 
 151   0.0000       0.797491        21.7008 
 152   0.0000       0.801577        21.8120 
 153   0.0000       0.805482        21.9183 
 154   0.0000       0.807259        21.9666 
 155   0.0000       0.809282        22.0217 
 156   0.0000       0.812177        22.1005 
 157   0.0000       0.817065        22.2335 
 158   0.0000       0.820719        22.3329 
 159   0.0000       0.825349        22.4589 
 160   0.0000       0.833078        22.6692 
 161   0.0000       0.840155        22.8618 
 162   0.0000       0.848812        23.0973 
 163   0.0000       0.852022        23.1847 
 164   0.0000       0.857190        23.3253 
 165   0.0000       0.869194        23.6520 
 166   0.0000       0.885292        24.0900 
 167   0.0000       0.893066        24.3016 
 168   0.0000       0.899872        24.4868 
 169   0.0000       0.914370        24.8813 
 170   0.0000       0.921337        25.0709 
 171   0.0000       0.923851        25.1393 
 172   0.0000       0.933025        25.3889 
 173   0.0000       0.952868        25.9289 
 174   0.0000       0.960980        26.1496 
 175   0.0000       0.974175        26.5087 
 176   0.0000       0.980006        26.6673 
 177   0.0000       1.005296        27.3555 
 178   0.0000       1.022920        27.8351 
 179   0.0000       1.043174        28.3862 
 180   0.0000       1.064366        28.9629 
 181   0.0000       1.074197        29.2304 
 182   0.0000       1.096055        29.8252 
 183   0.0000       1.102056        29.9885 
 184   0.0000       1.110082        30.2069 
 185   0.0000       1.125337        30.6220 
 186   0.0000       1.132678        30.8217 
 187   0.0000       1.162174        31.6244 
 188   0.0000       1.192773        32.4570 
 189   0.0000       1.211950        32.9788 
 190   0.0000       1.224409        33.3179 
 191   0.0000       1.246350        33.9149 
 192   0.0000       1.259281        34.2668 
 193   0.0000       1.279789        34.8248 
 194   0.0000       1.292212        35.1629 
 195   0.0000       1.300182        35.3797 
 196   0.0000       1.330137        36.1949 
 197   0.0000       1.345061        36.6010 
 198   0.0000       1.377740        37.4902 
 199   0.0000       1.393806        37.9274 
 200   0.0000       1.403227        38.1838 
 201   0.0000       1.418260        38.5928 
 202   0.0000       1.424621        38.7659 
 203   0.0000       1.435704        39.0675 
 204   0.0000       1.460354        39.7383 
 205   0.0000       1.469379        39.9838 
 206   0.0000       1.498376        40.7729 
 207   0.0000       1.508926        41.0600 
 208   0.0000       1.532339        41.6971 
 209   0.0000       1.565722        42.6055 
 210   0.0000       1.593975        43.3743 
 211   0.0000       1.614264        43.9264 
 212   0.0000       1.634558        44.4786 
 213   0.0000       1.640511        44.6406 
 214   0.0000       1.669426        45.4274 
 215   0.0000       1.677339        45.6427 
 216   0.0000       1.685428        45.8628 
 217   0.0000       1.735870        47.2354 
 218   0.0000       1.771084        48.1936 
 219   0.0000       1.789964        48.7074 
 220   0.0000       1.792178        48.7676 
 221   0.0000       1.813192        49.3395 
 222   0.0000       1.823769        49.6273 
 223   0.0000       1.825485        49.6740 
 224   0.0000       1.835161        49.9373 
 225   0.0000       1.847488        50.2727 
 226   0.0000       1.849052        50.3153 
 227   0.0000       1.861955        50.6664 
 228   0.0000       1.866632        50.7936 
 229   0.0000       1.871669        50.9307 
 230   0.0000       1.882795        51.2335 
 231   0.0000       1.892996        51.5111 
 232   0.0000       1.894920        51.5634 
 233   0.0000       1.897871        51.6437 
 234   0.0000       1.899923        51.6995 
 235   0.0000       1.905879        51.8616 
 236   0.0000       1.910317        51.9824 
 237   0.0000       1.925524        52.3962 
 238   0.0000       1.937596        52.7247 
 239   0.0000       1.942071        52.8464 
 240   0.0000       1.950907        53.0869 
 241   0.0000       1.959678        53.3256 
 242   0.0000       1.969368        53.5892 
 243   0.0000       1.976386        53.7802 
 244   0.0000       1.987661        54.0870 
 245   0.0000       1.993171        54.2369 
 246   0.0000       2.005227        54.5650 
 247   0.0000       2.011858        54.7455 
 248   0.0000       2.019081        54.9420 
 249   0.0000       2.022149        55.0255 
 250   0.0000       2.024859        55.0992 
 251   0.0000       2.034146        55.3519 
 252   0.0000       2.054926        55.9174 
 253   0.0000       2.061746        56.1030 
 254   0.0000       2.086712        56.7823 
 255   0.0000       2.088310        56.8258 
 256   0.0000       2.107912        57.3592 
 257   0.0000       2.148155        58.4543 
 258   0.0000       2.161493        58.8172 
 259   0.0000       2.168862        59.0177 
 260   0.0000       2.186261        59.4912 
 261   0.0000       2.200537        59.8796 
 262   0.0000       2.201512        59.9062 
 263   0.0000       2.225634        60.5626 
 264   0.0000       2.245936        61.1150 
 265   0.0000       2.258975        61.4698 
 266   0.0000       2.282891        62.1206 
 267   0.0000       2.294464        62.4355 
 268   0.0000       2.302420        62.6520 
 269   0.0000       2.305918        62.7472 
 270   0.0000       2.338636        63.6375 
 271   0.0000       2.363617        64.3173 
 272   0.0000       2.374587        64.6158 
 273   0.0000       2.395013        65.1716 
 274   0.0000       2.403422        65.4005 
 275   0.0000       2.414019        65.6888 
 276   0.0000       2.434217        66.2384 
 277   0.0000       2.458595        66.9018 
 278   0.0000       2.469200        67.1903 
 279   0.0000       2.475534        67.3627 
 280   0.0000       2.494034        67.8661 
 281   0.0000       2.508596        68.2624 
 282   0.0000       2.515231        68.4429 
 283   0.0000       2.518489        68.5316 
 284   0.0000       2.539122        69.0930 
 285   0.0000       2.571557        69.9756 
 286   0.0000       2.574024        70.0428 
 287   0.0000       2.591592        70.5208 
 288   0.0000       2.601927        70.8020 
 289   0.0000       2.636641        71.7466 
 290   0.0000       2.649325        72.0918 
 291   0.0000       2.674584        72.7791 
 292   0.0000       2.686029        73.0906 
 293   0.0000       2.707652        73.6789 
 294   0.0000       2.713178        73.8293 
 295   0.0000       2.728324        74.2415 
 296   0.0000       2.744978        74.6947 
 297   0.0000       2.771556        75.4179 
 298   0.0000       2.817332        76.6635 
 299   0.0000       2.836450        77.1837 
 300   0.0000       2.868924        78.0674 
 301   0.0000       2.893213        78.7283 
 302   0.0000       2.903506        79.0084 
 303   0.0000       2.927736        79.6677 
 304   0.0000       2.938559        79.9623 
 305   0.0000       2.977522        81.0225 
 306   0.0000       2.987300        81.2886 
 307   0.0000       3.018456        82.1364 
 308   0.0000       3.033760        82.5528 
 309   0.0000       3.040825        82.7451 
 310   0.0000       3.079506        83.7976 
 311   0.0000       3.104741        84.4843 
 312   0.0000       3.114809        84.7583 
 313   0.0000       3.132414        85.2373 
 314   0.0000       3.153032        85.7984 
 315   0.0000       3.164304        86.1051 
 316   0.0000       3.177702        86.4697 
 317   0.0000       3.186200        86.7009 
 318   0.0000       3.236957        88.0821 
 319   0.0000       3.310282        90.0773 
 320   0.0000       3.360746        91.4506 
 321   0.0000       3.505805        95.3978 

                    ********************************
                    * MULLIKEN POPULATION ANALYSIS *
                    ********************************

-----------------------
MULLIKEN ATOMIC CHARGES
-----------------------
   0 S :    0.166373
   1 C :   -0.114444
   2 C :   -0.141902
   3 C :    0.059101
   4 C :   -0.226589
   5 H :    0.016149
   6 C :    0.061373
   7 H :    0.027664
   8 H :    0.031165
   9 C :   -0.078164
  10 H :    0.031437
  11 H :    0.043745
  12 C :   -0.050018
  13 H :    0.042169
  14 H :    0.034586
  15 H :    0.025936
  16 S :    0.099072
  17 C :   -0.048241
  18 C :   -0.009022
  19 C :   -0.035357
  20 C :   -0.166296
  21 H :    0.001953
  22 C :    0.106649
  23 H :    0.008212
  24 H :    0.009459
  25 C :   -0.076316
  26 H :    0.029253
  27 H :    0.016807
  28 C :   -0.040602
  29 H :    0.033189
  30 H :    0.048753
  31 H :    0.021004
  32 H :    0.041765
  33 H :    0.031136
Sum of atomic charges:   -0.0000000

--------------------------------
MULLIKEN REDUCED ORBITAL CHARGES
--------------------------------
  0 S s       :     5.834257  s :     5.834257
      pz      :     3.377331  p :     9.875089
      px      :     3.338659
      py      :     3.159098
      dz2     :     0.025738  d :     0.124280
      dxz     :     0.023858
      dyz     :     0.018155
      dx2y2   :     0.033342
      dxy     :     0.023187
  1 C s       :     3.165507  s :     3.165507
      pz      :     1.077752  p :     2.916613
      px      :     0.995812
      py      :     0.843049
      dz2     :     0.003520  d :     0.032324
      dxz     :     0.005544
      dyz     :     0.005930
      dx2y2   :     0.009229
      dxy     :     0.008102
  2 C s       :     3.110678  s :     3.110678
      pz      :     0.991918  p :     2.987923
      px      :     0.995964
      py      :     1.000041
      dz2     :     0.006874  d :     0.043301
      dxz     :     0.006334
      dyz     :     0.007664
      dx2y2   :     0.011385
      dxy     :     0.011045
  3 C s       :     3.182741  s :     3.182741
      pz      :     0.963674  p :     2.724842
      px      :     0.852329
      py      :     0.908838
      dz2     :     0.004497  d :     0.033316
      dxz     :     0.005717
      dyz     :     0.006232
      dx2y2   :     0.007874
      dxy     :     0.008996
  4 C s       :     3.088547  s :     3.088547
      pz      :     1.066261  p :     3.092848
      px      :     0.978241
      py      :     1.048346
      dz2     :     0.005798  d :     0.045194
      dxz     :     0.009542
      dyz     :     0.007020
      dx2y2   :     0.012794
      dxy     :     0.010040
  5 H s       :     0.960535  s :     0.960535
      pz      :     0.007783  p :     0.023316
      px      :     0.012129
      py      :     0.003404
  6 C s       :     2.976620  s :     2.976620
      pz      :     0.975452  p :     2.926874
      px      :     0.979157
      py      :     0.972265
      dz2     :     0.007635  d :     0.035133
      dxz     :     0.008814
      dyz     :     0.005760
      dx2y2   :     0.004025
      dxy     :     0.008900
  7 H s       :     0.947648  s :     0.947648
      pz      :     0.005477  p :     0.024688
      px      :     0.009363
      py      :     0.009848
  8 H s       :     0.948430  s :     0.948430
      pz      :     0.007440  p :     0.020405
      px      :     0.009056
      py      :     0.003909
  9 C s       :     3.069398  s :     3.069398
      pz      :     0.958232  p :     2.972696
      px      :     0.999706
      py      :     1.014758
      dz2     :     0.007555  d :     0.036070
      dxz     :     0.008523
      dyz     :     0.005671
      dx2y2   :     0.006984
      dxy     :     0.007337
 10 H s       :     0.947013  s :     0.947013
      pz      :     0.006665  p :     0.021550
      px      :     0.010745
      py      :     0.004140
 11 H s       :     0.935069  s :     0.935069
      pz      :     0.004858  p :     0.021186
      px      :     0.005743
      py      :     0.010585
 12 C s       :     3.023426  s :     3.023426
      pz      :     1.019114  p :     2.998303
      px      :     0.987899
      py      :     0.991290
      dz2     :     0.005447  d :     0.028289
      dxz     :     0.006884
      dyz     :     0.002549
      dx2y2   :     0.006095
      dxy     :     0.007314
 13 H s       :     0.935499  s :     0.935499
      pz      :     0.012374  p :     0.022332
      px      :     0.005701
      py      :     0.004257
 14 H s       :     0.942285  s :     0.942285
      pz      :     0.008358  p :     0.023129
      px      :     0.010554
      py      :     0.004216
 15 H s       :     0.950212  s :     0.950212
      pz      :     0.005706  p :     0.023853
      px      :     0.006826
      py      :     0.011320
 16 S s       :     5.848491  s :     5.848491
      pz      :     3.333665  p :     9.944721
      px      :     3.659061
      py      :     2.951995
      dz2     :     0.018174  d :     0.107715
      dxz     :     0.012555
      dyz     :     0.040982
      dx2y2   :     0.013200
      dxy     :     0.022804
 17 C s       :     3.113855  s :     3.113855
      pz      :     0.906344  p :     2.895432
      px      :     1.075158
      py      :     0.913931
      dz2     :     0.010013  d :     0.038955
      dxz     :     0.008527
      dyz     :     0.011445
      dx2y2   :     0.004875
      dxy     :     0.004094
 18 C s       :     3.162751  s :     3.162751
      pz      :     0.855166  p :     2.809108
      px      :     1.004729
      py      :     0.949212
      dz2     :     0.009318  d :     0.037163
      dxz     :     0.004547
      dyz     :     0.011601
      dx2y2   :     0.005139
      dxy     :     0.006558
 19 C s       :     3.063341  s :     3.063341
      pz      :     0.982537  p :     2.925112
      px      :     0.987468
      py      :     0.955107
      dz2     :     0.013072  d :     0.046904
      dxz     :     0.009007
      dyz     :     0.011852
      dx2y2   :     0.006737
      dxy     :     0.006236
 20 C s       :     3.059107  s :     3.059107
      pz      :     1.015132  p :     3.062158
      px      :     1.102532
      py      :     0.944494
      dz2     :     0.009613  d :     0.045032
      dxz     :     0.008238
      dyz     :     0.015958
      dx2y2   :     0.005715
      dxy     :     0.005508
 21 H s       :     0.973320  s :     0.973320
      pz      :     0.014099  p :     0.024727
      px      :     0.005518
      py      :     0.005110
 22 C s       :     2.898300  s :     2.898300
      pz      :     0.966614  p :     2.957237
      px      :     0.992349
      py      :     0.998274
      dz2     :     0.006074  d :     0.037815
      dxz     :     0.009831
      dyz     :     0.007948
      dx2y2   :     0.007306
      dxy     :     0.006656
 23 H s       :     0.967379  s :     0.967379
      pz      :     0.011541  p :     0.024409
      px      :     0.007580
      py      :     0.005288
 24 H s       :     0.965609  s :     0.965609
      pz      :     0.006516  p :     0.024932
      px      :     0.005469
      py      :     0.012947
 25 C s       :     3.056280  s :     3.056280
      pz      :     1.009540  p :     2.983801
      px      :     0.956626
      py      :     1.017634
      dz2     :     0.005772  d :     0.036235
      dxz     :     0.008162
      dyz     :     0.009017
      dx2y2   :     0.008873
      dxy     :     0.004412
 26 H s       :     0.950416  s :     0.950416
      pz      :     0.004526  p :     0.020331
      px      :     0.003554
      py      :     0.012251
 27 H s       :     0.958884  s :     0.958884
      pz      :     0.011035  p :     0.024309
      px      :     0.004151
      py      :     0.009124
 28 C s       :     3.002705  s :     3.002705
      pz      :     1.000746  p :     3.009718
      px      :     0.997245
      py      :     1.011727
      dz2     :     0.002977  d :     0.028179
      dxz     :     0.006584
      dyz     :     0.008635
      dx2y2   :     0.006884
      dxy     :     0.003100
 29 H s       :     0.941042  s :     0.941042
      pz      :     0.008151  p :     0.025769
      px      :     0.006257
      py      :     0.011360
 30 H s       :     0.928976  s :     0.928976
      pz      :     0.007590  p :     0.022271
      px      :     0.004322
      py      :     0.010358
 31 H s       :     0.953929  s :     0.953929
      pz      :     0.006463  p :     0.025067
      px      :     0.012763
      py      :     0.005841
 32 H s       :     0.934047  s :     0.934047
      pz      :     0.007729  p :     0.024188
      px      :     0.006139
      py      :     0.010320
 33 H s       :     0.942656  s :     0.942656
      pz      :     0.003654  p :     0.026208
      px      :     0.006201
      py      :     0.016352


                     *******************************
                     * LOEWDIN POPULATION ANALYSIS *
                     *******************************

----------------------
LOEWDIN ATOMIC CHARGES
----------------------
   0 S :    0.489331
   1 C :   -0.229132
   2 C :   -0.061353
   3 C :   -0.066871
   4 C :   -0.223576
   5 H :    0.032283
   6 C :   -0.034020
   7 H :    0.026477
   8 H :    0.037814
   9 C :   -0.045680
  10 H :    0.027493
  11 H :    0.031300
  12 C :   -0.072908
  13 H :    0.032749
  14 H :    0.027157
  15 H :    0.023642
  16 S :    0.392076
  17 C :   -0.170490
  18 C :   -0.057600
  19 C :   -0.056629
  20 C :   -0.202766
  21 H :    0.024434
  22 C :   -0.037793
  23 H :    0.031615
  24 H :    0.027383
  25 C :   -0.029609
  26 H :    0.029424
  27 H :    0.012204
  28 C :   -0.065189
  29 H :    0.013494
  30 H :    0.031354
  31 H :    0.019811
  32 H :    0.028903
  33 H :    0.014672

-------------------------------
LOEWDIN REDUCED ORBITAL CHARGES
-------------------------------
  0 S s       :     5.466766  s :     5.466766
      pz      :     3.353586  p :     9.887066
      px      :     3.363541
      py      :     3.169939
      dz2     :     0.031190  d :     0.156837
      dxz     :     0.031277
      dyz     :     0.023163
      dx2y2   :     0.042870
      dxy     :     0.028337
  1 C s       :     2.937872  s :     2.937872
      pz      :     1.117057  p :     3.214980
      px      :     1.079480
      py      :     1.018442
      dz2     :     0.006523  d :     0.076280
      dxz     :     0.012940
      dyz     :     0.012697
      dx2y2   :     0.023299
      dxy     :     0.020822
  2 C s       :     2.871733  s :     2.871733
      pz      :     1.004845  p :     3.084249
      px      :     1.045788
      py      :     1.033616
      dz2     :     0.014726  d :     0.105371
      dxz     :     0.015746
      dyz     :     0.018606
      dx2y2   :     0.028459
      dxy     :     0.027833
  3 C s       :     2.874784  s :     2.874784
      pz      :     1.032175  p :     3.103982
      px      :     1.037451
      py      :     1.034356
      dz2     :     0.010237  d :     0.088105
      dxz     :     0.013822
      dyz     :     0.016216
      dx2y2   :     0.021476
      dxy     :     0.026354
  4 C s       :     2.908727  s :     2.908727
      pz      :     1.061654  p :     3.206894
      px      :     1.066822
      py      :     1.078418
      dz2     :     0.012778  d :     0.107955
      dxz     :     0.021093
      dyz     :     0.016220
      dx2y2   :     0.031717
      dxy     :     0.026147
  5 H s       :     0.899079  s :     0.899079
      pz      :     0.022481  p :     0.068638
      px      :     0.035182
      py      :     0.010975
  6 C s       :     2.836783  s :     2.836783
      pz      :     1.028339  p :     3.110001
      px      :     1.044403
      py      :     1.037259
      dz2     :     0.019838  d :     0.087236
      dxz     :     0.021924
      dyz     :     0.012486
      dx2y2   :     0.010573
      dxy     :     0.022415
  7 H s       :     0.897666  s :     0.897666
      pz      :     0.018045  p :     0.075857
      px      :     0.028336
      py      :     0.029476
  8 H s       :     0.906357  s :     0.906357
      pz      :     0.021950  p :     0.055829
      px      :     0.023603
      py      :     0.010275
  9 C s       :     2.843650  s :     2.843650
      pz      :     1.017704  p :     3.113977
      px      :     1.046251
      py      :     1.050022
      dz2     :     0.019800  d :     0.088053
      dxz     :     0.020149
      dyz     :     0.013174
      dx2y2   :     0.015392
      dxy     :     0.019538
 10 H s       :     0.909581  s :     0.909581
      pz      :     0.019736  p :     0.062925
      px      :     0.030809
      py      :     0.012380
 11 H s       :     0.906715  s :     0.906715
      pz      :     0.015122  p :     0.061985
      px      :     0.016418
      py      :     0.030445
 12 C s       :     2.839383  s :     2.839383
      pz      :     1.068611  p :     3.161352
      px      :     1.046169
      py      :     1.046572
      dz2     :     0.014627  d :     0.072173
      dxz     :     0.017806
      dyz     :     0.005726
      dx2y2   :     0.013747
      dxy     :     0.020266
 13 H s       :     0.906037  s :     0.906037
      pz      :     0.033847  p :     0.061215
      px      :     0.015109
      py      :     0.012259
 14 H s       :     0.908817  s :     0.908817
      pz      :     0.022347  p :     0.064026
      px      :     0.029447
      py      :     0.012232
 15 H s       :     0.909124  s :     0.909124
      pz      :     0.014925  p :     0.067234
      px      :     0.019361
      py      :     0.032948
 16 S s       :     5.504948  s :     5.504948
      pz      :     3.371612  p :     9.969291
      px      :     3.624002
      py      :     2.973677
      dz2     :     0.020557  d :     0.133685
      dxz     :     0.013099
      dyz     :     0.053314
      dx2y2   :     0.017798
      dxy     :     0.028916
 17 C s       :     2.904889  s :     2.904889
      pz      :     1.045037  p :     3.172359
      px      :     1.065635
      py      :     1.061687
      dz2     :     0.025591  d :     0.093242
      dxz     :     0.017511
      dyz     :     0.031460
      dx2y2   :     0.011440
      dxy     :     0.007239
 18 C s       :     2.854844  s :     2.854844
      pz      :     1.068293  p :     3.104932
      px      :     0.998798
      py      :     1.037841
      dz2     :     0.029000  d :     0.097824
      dxz     :     0.008633
      dyz     :     0.032505
      dx2y2   :     0.013397
      dxy     :     0.014289
 19 C s       :     2.840609  s :     2.840609
      pz      :     1.076037  p :     3.095411
      px      :     0.972531
      py      :     1.046843
      dz2     :     0.038564  d :     0.120609
      dxz     :     0.019013
      dyz     :     0.033729
      dx2y2   :     0.016289
      dxy     :     0.013013
 20 C s       :     2.898711  s :     2.898711
      pz      :     1.083537  p :     3.194398
      px      :     1.093709
      py      :     1.017152
      dz2     :     0.026747  d :     0.109658
      dxz     :     0.016946
      dyz     :     0.041464
      dx2y2   :     0.012640
      dxy     :     0.011861
 21 H s       :     0.901948  s :     0.901948
      pz      :     0.039248  p :     0.073618
      px      :     0.017127
      py      :     0.017242
 22 C s       :     2.804359  s :     2.804359
      pz      :     1.041509  p :     3.136399
      px      :     1.033191
      py      :     1.061699
      dz2     :     0.016216  d :     0.097034
      dxz     :     0.023995
      dyz     :     0.021224
      dx2y2   :     0.021127
      dxy     :     0.014473
 23 H s       :     0.897770  s :     0.897770
      pz      :     0.032017  p :     0.070615
      px      :     0.023304
      py      :     0.015294
 24 H s       :     0.900631  s :     0.900631
      pz      :     0.017716  p :     0.071986
      px      :     0.018805
      py      :     0.035466
 25 C s       :     2.840139  s :     2.840139
      pz      :     1.043674  p :     3.102724
      px      :     1.000496
      py      :     1.058554
      dz2     :     0.013258  d :     0.086746
      dxz     :     0.020628
      dyz     :     0.021495
      dx2y2   :     0.022351
      dxy     :     0.009013
 26 H s       :     0.913650  s :     0.913650
      pz      :     0.013040  p :     0.056926
      px      :     0.011804
      py      :     0.032081
 27 H s       :     0.912472  s :     0.912472
      pz      :     0.033295  p :     0.075324
      px      :     0.016065
      py      :     0.025963
 28 C s       :     2.827987  s :     2.827987
      pz      :     1.050949  p :     3.165216
      px      :     1.051706
      py      :     1.062560
      dz2     :     0.006360  d :     0.071985
      dxz     :     0.018248
      dyz     :     0.022076
      dx2y2   :     0.017635
      dxy     :     0.007668
 29 H s       :     0.912024  s :     0.912024
      pz      :     0.023297  p :     0.074483
      px      :     0.018126
      py      :     0.033060
 30 H s       :     0.908308  s :     0.908308
      pz      :     0.020868  p :     0.060338
      px      :     0.011768
      py      :     0.027702
 31 H s       :     0.909144  s :     0.909144
      pz      :     0.019260  p :     0.071045
      px      :     0.036197
      py      :     0.015588
 32 H s       :     0.895388  s :     0.895388
      pz      :     0.024107  p :     0.075709
      px      :     0.018707
      py      :     0.032894
 33 H s       :     0.902004  s :     0.902004
      pz      :     0.014779  p :     0.083324
      px      :     0.021407
      py      :     0.047138


                      *****************************
                      * MAYER POPULATION ANALYSIS *
                      *****************************

  NA   - Mulliken gross atomic population
  ZA   - Total nuclear charge
  QA   - Mulliken gross atomic charge
  VA   - Mayer's total valence
  BVA  - Mayer's bonded valence
  FA   - Mayer's free valence

  ATOM       NA         ZA         QA         VA         BVA        FA
  0 S     15.8336    16.0000     0.1664     2.5868     2.5868    -0.0000
  1 C      6.1144     6.0000    -0.1144     3.8236     3.8236     0.0000
  2 C      6.1419     6.0000    -0.1419     4.0321     4.0321     0.0000
  3 C      5.9409     6.0000     0.0591     3.9140     3.9140    -0.0000
  4 C      6.2266     6.0000    -0.2266     3.9194     3.9194    -0.0000
  5 H      0.9839     1.0000     0.0161     1.0011     1.0011    -0.0000
  6 C      5.9386     6.0000     0.0614     3.9243     3.9243     0.0000
  7 H      0.9723     1.0000     0.0277     0.9862     0.9862    -0.0000
  8 H      0.9688     1.0000     0.0312     0.9937     0.9937     0.0000
  9 C      6.0782     6.0000    -0.0782     4.0699     4.0699     0.0000
 10 H      0.9686     1.0000     0.0314     0.9797     0.9797    -0.0000
 11 H      0.9563     1.0000     0.0437     0.9791     0.9791     0.0000
 12 C      6.0500     6.0000    -0.0500     3.9977     3.9977    -0.0000
 13 H      0.9578     1.0000     0.0422     0.9838     0.9838     0.0000
 14 H      0.9654     1.0000     0.0346     0.9895     0.9895    -0.0000
 15 H      0.9741     1.0000     0.0259     0.9871     0.9871    -0.0000
 16 S     15.9009    16.0000     0.0991     2.4411     2.4411    -0.0000
 17 C      6.0482     6.0000    -0.0482     3.8311     3.8311     0.0000
 18 C      6.0090     6.0000    -0.0090     3.9429     3.9429     0.0000
 19 C      6.0354     6.0000    -0.0354     4.0628     4.0628     0.0000
 20 C      6.1663     6.0000    -0.1663     3.8749     3.8749    -0.0000
 21 H      0.9980     1.0000     0.0020     0.9977     0.9977    -0.0000
 22 C      5.8934     6.0000     0.1066     3.9456     3.9456     0.0000
 23 H      0.9918     1.0000     0.0082     0.9857     0.9857     0.0000
 24 H      0.9905     1.0000     0.0095     1.0069     1.0069     0.0000
 25 C      6.0763     6.0000    -0.0763     4.0889     4.0889     0.0000
 26 H      0.9707     1.0000     0.0293     0.9793     0.9793    -0.0000
 27 H      0.9832     1.0000     0.0168     0.9788     0.9788    -0.0000
 28 C      6.0406     6.0000    -0.0406     3.9910     3.9910    -0.0000
 29 H      0.9668     1.0000     0.0332     0.9961     0.9961    -0.0000
 30 H      0.9512     1.0000     0.0488     0.9905     0.9905    -0.0000
 31 H      0.9790     1.0000     0.0210     0.9895     0.9895    -0.0000
 32 H      0.9582     1.0000     0.0418     1.0083     1.0083     0.0000
 33 H      0.9689     1.0000     0.0311     1.0003     1.0003     0.0000

  Mayer bond orders larger than 0.100000
B(  0-S ,  1-C ) :   1.1707 B(  0-S ,  4-C ) :   1.2206 B(  1-C ,  2-C ) :   1.5446 
B(  1-C ,  4-C ) :   0.1120 B(  1-C , 32-H ) :   0.9649 B(  2-C ,  3-C ) :   1.3190 
B(  2-C ,  6-C ) :   1.0104 B(  3-C ,  4-C ) :   1.5060 B(  3-C ,  5-H ) :   0.9870 
B(  4-C , 20-C ) :   1.0020 B(  6-C ,  7-H ) :   0.9312 B(  6-C ,  8-H ) :   0.9458 
B(  6-C ,  9-C ) :   1.0549 B(  9-C , 10-H ) :   0.9494 B(  9-C , 11-H ) :   0.9600 
B(  9-C , 12-C ) :   1.0867 B( 12-C , 13-H ) :   0.9742 B( 12-C , 14-H ) :   0.9745 
B( 12-C , 15-H ) :   0.9726 B( 16-S , 17-C ) :   1.1344 B( 16-S , 20-C ) :   1.1340 
B( 17-C , 18-C ) :   1.6446 B( 17-C , 33-H ) :   0.9712 B( 18-C , 19-C ) :   1.2045 
B( 18-C , 21-H ) :   0.9934 B( 19-C , 20-C ) :   1.6286 B( 19-C , 22-C ) :   1.0770 
B( 22-C , 23-H ) :   0.9172 B( 22-C , 24-H ) :   0.9192 B( 22-C , 25-C ) :   1.0674 
B( 25-C , 26-H ) :   0.9560 B( 25-C , 27-H ) :   0.9591 B( 25-C , 28-C ) :   1.0743 
B( 28-C , 29-H ) :   0.9751 B( 28-C , 30-H ) :   0.9736 B( 28-C , 31-H ) :   0.9721 


-------
TIMINGS
-------

Total SCF time: 0 days 0 hours 0 min 30 sec 

Total time                  ....      30.289 sec
Sum of individual times     ....      28.881 sec  ( 95.4%)

Fock matrix formation       ....      26.729 sec  ( 88.2%)
  XC integration            ....       1.877 sec  (  7.0% of F)
    Basis function eval.    ....       0.223 sec  ( 11.9% of XC)
    Density eval.           ....       0.158 sec  (  8.4% of XC)
    XC-Functional eval.     ....       0.174 sec  (  9.3% of XC)
    XC-Potential eval.      ....       0.194 sec  ( 10.3% of XC)
Diagonalization             ....       0.138 sec  (  0.5%)
Density matrix formation    ....       0.020 sec  (  0.1%)
Population analysis         ....       0.091 sec  (  0.3%)
Initial guess               ....       0.198 sec  (  0.7%)
Orbital Transformation      ....       0.000 sec  (  0.0%)
Orbital Orthonormalization  ....       0.000 sec  (  0.0%)
DIIS solution               ....       0.179 sec  (  0.6%)
SOSCF solution              ....       0.141 sec  (  0.5%)
Grid generation             ....       1.385 sec  (  4.6%)


-------------------------------------------------------------------------------
                          DFT DISPERSION CORRECTION                            
                                                                               
                              DFTD3 V3.1  Rev 1                                
                              USING zero damping                               
-------------------------------------------------------------------------------
The omegaB97X-D3 functional is recognized. Fit by Chai et al.
Active option DFTDOPT                   ...         3   

molecular C6(AA) [au] = 14126.514289 


            DFT-D V3
 parameters
 s6 scaling factor         :     1.0000 
 rs6 scaling factor        :     1.2810 
 s8 scaling factor         :     1.0000 
 rs8 scaling factor        :     1.0940 
 Damping factor alpha6     :    14.0000 
 Damping factor alpha8     :    16.0000 
 ad hoc parameters k1-k3   :    16.0000     1.3333    -4.0000 

 Edisp/kcal,au: -9.791066885058  -0.015603056600 
 E6   /kcal   :  -4.301886814 
 E8   /kcal   :  -5.489180071 
 % E8         :  56.063145468 

-------------------------   ----------------
Dispersion correction           -0.015603057
-------------------------   ----------------


-------------------------   --------------------
FINAL SINGLE POINT ENERGY     -1339.870157740457
-------------------------   --------------------


                            ***************************************
                            *     ORCA property calculations      *
                            ***************************************

                                    ---------------------
                                    Active property flags
                                    ---------------------
   (+) Dipole Moment


------------------------------------------------------------------------------
                       ORCA ELECTRIC PROPERTIES CALCULATION
------------------------------------------------------------------------------

Dipole Moment Calculation                       ... on
Quadrupole Moment Calculation                   ... off
Polarizability Calculation                      ... off
GBWName                                         ... config_6575.gbw
Electron density file                           ... config_6575.scfp
The origin for moment calculation is the CENTER OF MASS  = (-76.277807, 46.159852 147.995673)

-------------
DIPOLE MOMENT
-------------
                                X             Y             Z
Electronic contribution:     -3.12119     -20.48694       4.78193
Nuclear contribution   :      3.32278      20.92089      -5.18668
                        -----------------------------------------
Total Dipole Moment    :      0.20159       0.43395      -0.40475
                        -----------------------------------------
Magnitude (a.u.)       :      0.62672
Magnitude (Debye)      :      1.59299



--------------------
Rotational spectrum 
--------------------
 
Rotational constants in cm-1:     0.024475     0.007595     0.006961 
Rotational constants in MHz :   733.748142   227.707213   208.697192 

 Dipole components along the rotational axes: 
x,y,z [a.u.] :    -0.186915     0.396303    -0.448085 
x,y,z [Debye]:    -0.475099     1.007323    -1.138942 

 

Timings for individual modules:

Sum of individual times         ...       31.415 sec (=   0.524 min)
GTO integral calculation        ...        0.760 sec (=   0.013 min)   2.4 %
SCF iterations                  ...       30.654 sec (=   0.511 min)  97.6 %
                             ****ORCA TERMINATED NORMALLY****
TOTAL RUN TIME: 0 days 0 hours 0 minutes 32 seconds 60 msec
