
                                 *****************
                                 * O   R   C   A *
                                 *****************

           --- An Ab Initio, DFT and Semiempirical electronic structure package ---

                  #######################################################
                  #                        -***-                        #
                  #          Department of theory and spectroscopy      #
                  #               Directorship: Frank Neese             #
                  #        Max Planck Institute fuer Kohlenforschung    #
                  #                Kaiser Wilhelm Platz 1               #
                  #                 D-45470 Muelheim/Ruhr               #
                  #                      Germany                        #
                  #                                                     #
                  #                  All rights reserved                #
                  #                        -***-                        #
                  #######################################################


                         Program Version 4.2.1 -  RELEASE  -


 With contributions from (in alphabetic order):
   Daniel Aravena         : Magnetic Suceptibility
   Michael Atanasov       : Ab Initio Ligand Field Theory (pilot matlab implementation)
   Alexander A. Auer      : GIAO ZORA, VPT2
   Ute Becker             : Parallelization
   Giovanni Bistoni       : ED, misc. LED, open-shell LED, HFLD
   Martin Brehm           : Molecular dynamics
   Dmytro Bykov           : SCF Hessian
   Vijay G. Chilkuri      : MRCI spin determinant printing, contributions to CSF-ICE
   Dipayan Datta          : RHF DLPNO-CCSD density
   Achintya Kumar Dutta   : EOM-CC, STEOM-CC
   Dmitry Ganyushin       : Spin-Orbit,Spin-Spin,Magnetic field MRCI
   Miquel Garcia          : C-PCM Hessian, Gaussian charge scheme
   Yang Guo               : DLPNO-NEVPT2, CIM, IAO-localization
   Andreas Hansen         : Spin unrestricted coupled pair/coupled cluster methods
   Benjamin Helmich-Paris : CASSCF linear response (MC-RPA)
   Lee Huntington         : MR-EOM, pCC
   Robert Izsak           : Overlap fitted RIJCOSX, COSX-SCS-MP3, EOM
   Christian Kollmar      : KDIIS, OOCD, Brueckner-CCSD(T), CCSD density
   Simone Kossmann        : Meta GGA functionals, TD-DFT gradient, OOMP2, MP2 Hessian
   Martin Krupicka        : AUTO-CI
   Lucas Lang             : DCDCAS
   Dagmar Lenk            : GEPOL surface, SMD
   Dimitrios Liakos       : Extrapolation schemes; Compound Job, initial MDCI parallelization
   Dimitrios Manganas     : Further ROCIS development; embedding schemes
   Dimitrios Pantazis     : SARC Basis sets
   Taras Petrenko         : DFT Hessian,TD-DFT gradient, ASA, ECA, R-Raman, ABS, FL, XAS/XES, NRVS
   Peter Pinski           : DLPNO-MP2, DLPNO-MP2 Gradient
   Christoph Reimann      : Effective Core Potentials
   Marius Retegan         : Local ZFS, SOC
   Christoph Riplinger    : Optimizer, TS searches, QM/MM, DLPNO-CCSD(T), (RO)-DLPNO pert. Triples
   Tobias Risthaus        : Range-separated hybrids, TD-DFT gradient, RPA, STAB
   Michael Roemelt        : Original ROCIS implementation
   Masaaki Saitow         : Open-shell DLPNO-CCSD energy and density
   Barbara Sandhoefer     : DKH picture change effects
   Avijit Sen             : IP-ROCIS
   Kantharuban Sivalingam : CASSCF convergence, NEVPT2, FIC-MRCI
   Bernardo de Souza      : ESD, SOC TD-DFT
   Georgi Stoychev        : AutoAux, RI-MP2 NMR
   Willem Van den Heuvel  : Paramagnetic NMR
   Boris Wezisla          : Elementary symmetry handling
   Frank Wennmohs         : Technical directorship


 We gratefully acknowledge several colleagues who have allowed us to
 interface, adapt or use parts of their codes:
   Stefan Grimme, W. Hujo, H. Kruse,             : VdW corrections, initial TS optimization,
                  C. Bannwarth                     DFT functionals, gCP, sTDA/sTD-DF
   Ed Valeev, F. Pavosevic, A. Kumar             : LibInt (2-el integral package), F12 methods
   Garnet Chan, S. Sharma, J. Yang, R. Olivares  : DMRG
   Ulf Ekstrom                                   : XCFun DFT Library
   Mihaly Kallay                                 : mrcc  (arbitrary order and MRCC methods)
   Andreas Klamt, Michael Diedenhofen            : otool_cosmo (COSMO solvation model)
   Jiri Pittner, Ondrej Demel                    : Mk-CCSD
   Frank Weinhold                                : gennbo (NPA and NBO analysis)
   Christopher J. Cramer and Donald G. Truhlar   : smd solvation model
   Lars Goerigk                                  : TD-DFT with DH, B97 family of functionals
   V. Asgeirsson, H. Jonsson                     : NEB implementation
   FAccTs GmbH                                   : IRC, NEB, NEB-TS, Multilevel, MM, QM/MM, CI optimization
   S Lehtola, MJT Oliveira, MAL Marques          : LibXC Library


 Your calculation uses the libint2 library for the computation of 2-el integrals
 For citations please refer to: http://libint.valeyev.net

 Your ORCA version has been built with support for libXC version: 4.2.3
 For citations please refer to: https://tddft.org/programs/libxc/

 This ORCA versions uses:
   CBLAS   interface :  Fast vector & matrix operations
   LAPACKE interface :  Fast linear algebra routines
   SCALAPACK package :  Parallel linear algebra routines


Your calculation utilizes the atom-pairwise dispersion correction
with the zero-damping scheme (D30)
Cite in your paper:
S.Grimme, J.Antony, S.Ehrlich and H.Krieg, J.Chem.Phys., 132, (2010), 154104 
   

XCFun DFT library Copyright 2009-2010 Ulf Ekstrom and contributors.
See http://admol.org/xcfun for more information. This is free soft-
ware; see the source code for copying conditions. There is ABSOLUTELY
NO WARRANTY; not even for MERCHANTABILITY or FITNESS FOR A PARTICULAR
PURPOSE. For details see the documentation. Scientific users of this 
library should cite U. Ekstrom, L. Visscher, R. Bast, A. J. Thorvald-
sen and K. Ruud; J.Chem.Theor.Comp. 2010, DOI: 10.1021/ct100117s
XCFun Version 0.99 
----- Orbital basis set information -----
Your calculation utilizes the basis: def2-SVP
   F. Weigend and R. Ahlrichs, Phys. Chem. Chem. Phys. 7, 3297 (2005).

================================================================================
                                        WARNINGS
                       Please study these warnings very carefully!
================================================================================


INFO   : the flag for use of LIBINT has been found!

================================================================================
                                       INPUT FILE
================================================================================
NAME = config_834.inp
|  1> ! wB97X-D3 SP def2-SVP
|  2> %pal
|  3> nprocs 16
|  4> end
|  5> 
|  6> * xyz 0 1
|  7> S 	 -3.61999 	 75.3488 	 57.8629 	 
|  8> C 	 -2.48816 	 73.948 	 58.1699 	 
|  9> C 	 -2.29958 	 73.1953 	 57.0165 	 
| 10> C 	 -3.11154 	 73.769 	 55.9416 	 
| 11> C 	 -3.75553 	 74.9819 	 56.1213 	 
| 12> H 	 -3.18801 	 73.3146 	 54.9404 	 
| 13> C 	 -1.66728 	 71.8411 	 56.8247 	 
| 14> H 	 -0.742033 	 71.8167 	 57.429 	 
| 15> H 	 -1.32951 	 71.7919 	 55.763 	 
| 16> C 	 -2.58661 	 70.6722 	 57.2272 	 
| 17> H 	 -2.81831 	 70.7312 	 58.3007 	 
| 18> H 	 -3.54587 	 70.8186 	 56.6687 	 
| 19> C 	 -1.98738 	 69.2909 	 56.9599 	 
| 20> H 	 -2.58013 	 68.4161 	 57.0952 	 
| 21> H 	 -1.77323 	 69.2578 	 55.8738 	 
| 22> H 	 -1.08909 	 69.0812 	 57.5802 	 
| 23> S 	 -6.30507 	 75.7436 	 55.4741 	 
| 24> C 	 -6.59903 	 76.0868 	 53.7833 	 
| 25> C 	 -5.42972 	 76.3548 	 53.0952 	 
| 26> C 	 -4.26315 	 76.0933 	 53.8725 	 
| 27> C 	 -4.57231 	 75.6899 	 55.1723 	 
| 28> H 	 -5.47162 	 76.6113 	 52.0376 	 
| 29> C 	 -2.79524 	 76.2111 	 53.2998 	 
| 30> H 	 -2.30164 	 75.4192 	 53.7663 	 
| 31> H 	 -2.20745 	 77.0519 	 53.5958 	 
| 32> C 	 -2.47601 	 76.0517 	 51.7751 	 
| 33> H 	 -2.9453 	 76.7781 	 51.0643 	 
| 34> H 	 -3.03278 	 75.1363 	 51.5016 	 
| 35> C 	 -0.971755 	 76.0122 	 51.4437 	 
| 36> H 	 -0.507617 	 75.3135 	 52.1788 	 
| 37> H 	 -0.478337 	 76.9766 	 51.4832 	 
| 38> H 	 -0.663205 	 75.5973 	 50.5095 	 
| 39> H 	 -2.11536 	 73.5114 	 59.0646 	 
| 40> H 	 -7.60847 	 76.2557 	 53.383 	 
| 41> *
| 42> 
| 43>                          ****END OF INPUT****
================================================================================

                       ****************************
                       * Single Point Calculation *
                       ****************************

---------------------------------
CARTESIAN COORDINATES (ANGSTROEM)
---------------------------------
  S     -3.619990   75.348800   57.862900
  C     -2.488160   73.948000   58.169900
  C     -2.299580   73.195300   57.016500
  C     -3.111540   73.769000   55.941600
  C     -3.755530   74.981900   56.121300
  H     -3.188010   73.314600   54.940400
  C     -1.667280   71.841100   56.824700
  H     -0.742033   71.816700   57.429000
  H     -1.329510   71.791900   55.763000
  C     -2.586610   70.672200   57.227200
  H     -2.818310   70.731200   58.300700
  H     -3.545870   70.818600   56.668700
  C     -1.987380   69.290900   56.959900
  H     -2.580130   68.416100   57.095200
  H     -1.773230   69.257800   55.873800
  H     -1.089090   69.081200   57.580200
  S     -6.305070   75.743600   55.474100
  C     -6.599030   76.086800   53.783300
  C     -5.429720   76.354800   53.095200
  C     -4.263150   76.093300   53.872500
  C     -4.572310   75.689900   55.172300
  H     -5.471620   76.611300   52.037600
  C     -2.795240   76.211100   53.299800
  H     -2.301640   75.419200   53.766300
  H     -2.207450   77.051900   53.595800
  C     -2.476010   76.051700   51.775100
  H     -2.945300   76.778100   51.064300
  H     -3.032780   75.136300   51.501600
  C     -0.971755   76.012200   51.443700
  H     -0.507617   75.313500   52.178800
  H     -0.478337   76.976600   51.483200
  H     -0.663205   75.597300   50.509500
  H     -2.115360   73.511400   59.064600
  H     -7.608470   76.255700   53.383000

----------------------------
CARTESIAN COORDINATES (A.U.)
----------------------------
  NO LB      ZA    FRAG     MASS         X           Y           Z
   0 S    16.0000    0    32.060   -6.840790  142.388597  109.345034
   1 C     6.0000    0    12.011   -4.701941  139.741468  109.925180
   2 C     6.0000    0    12.011   -4.345576  138.319071  107.745570
   3 C     6.0000    0    12.011   -5.879958  139.403207  105.714303
   4 C     6.0000    0    12.011   -7.096923  141.695256  106.053887
   5 H     1.0000    0     1.008   -6.024466  138.544516  103.822310
   6 C     6.0000    0    12.011   -3.150703  135.760004  107.383121
   7 H     1.0000    0     1.008   -1.402239  135.713895  108.525082
   8 H     1.0000    0     1.008   -2.512410  135.667030  105.376798
   9 C     6.0000    0    12.011   -4.887985  133.551103  108.143735
  10 H     1.0000    0     1.008   -5.325834  133.662597  110.172356
  11 H     1.0000    0     1.008   -6.700723  133.827759  107.088323
  12 C     6.0000    0    12.011   -3.755604  130.940825  107.638612
  13 H     1.0000    0     1.008   -4.875739  129.287692  107.894292
  14 H     1.0000    0     1.008   -3.350919  130.878275  105.586180
  15 H     1.0000    0     1.008   -2.058082  130.544549  108.810809
  16 S    16.0000    0    32.060  -11.914856  143.134660  104.830857
  17 C     6.0000    0    12.011  -12.470359  143.783214  101.635708
  18 C     6.0000    0    12.011  -10.260684  144.289661  100.335387
  19 C     6.0000    0    12.011   -8.056186  143.795498  101.804271
  20 C     6.0000    0    12.011   -8.640414  143.033182  104.260537
  21 H     1.0000    0     1.008  -10.339863  144.774376   98.336813
  22 C     6.0000    0    12.011   -5.282238  144.018107  100.722025
  23 H     1.0000    0     1.008   -4.349469  142.521633  101.603582
  24 H     1.0000    0     1.008   -4.171476  145.606989  101.281384
  25 C     6.0000    0    12.011   -4.678981  143.716885   97.840760
  26 H     1.0000    0     1.008   -5.565810  145.089582   96.497542
  27 H     1.0000    0     1.008   -5.731124  141.987030   97.323919
  28 C     6.0000    0    12.011   -1.836351  143.642241   97.214504
  29 H     1.0000    0     1.008   -0.959257  142.321889   98.603642
  30 H     1.0000    0     1.008   -0.903926  145.464693   97.289148
  31 H     1.0000    0     1.008   -1.253276  142.858193   95.449122
  32 H     1.0000    0     1.008   -3.997451  138.916414  111.615918
  33 H     1.0000    0     1.008  -14.377925  144.102389  100.879250

--------------------------------
INTERNAL COORDINATES (ANGSTROEM)
--------------------------------
 S      0   0   0     0.000000000000     0.00000000     0.00000000
 C      1   0   0     1.826890469870     0.00000000     0.00000000
 C      2   1   0     1.390126349078   111.08737450     0.00000000
 C      3   2   1     1.464179204059   108.76754792   358.50759073
 C      4   3   2     1.384969898626   120.38092750     8.59723246
 H      4   3   2     1.102147204733   122.94434014   184.07136277
 C      3   2   1     1.506800640430   130.47862183   192.02479526
 H      7   3   2     1.105375891274   107.54767257   316.24069620
 H      7   3   2     1.115220203771   106.73374533   203.51305387
 C      7   3   2     1.540617119501   113.46704260    77.97109376
 H     10   7   3     1.099803682482   109.87829229   297.34643694
 H     10   7   3     1.119613753756   106.36342493    53.32017717
 C     10   7   3     1.529220576928   113.94343423   176.58356681
 H     13  10   7     1.065332667527   120.09904324   187.06797677
 H     13  10   7     1.107505775380   105.91328585   301.57307270
 H     13  10   7     1.111607441546   112.92435852    65.32752959
 S      5   4   3     2.738468356874   130.22804024   224.20442127
 C     17   5   4     1.750143811691   116.05556685   283.42055223
 C     18  17   5     1.382964745068   112.12755314   339.82393891
 C     19  18  17     1.425995478569   112.63998697     8.76863356
 C     20  19  18     1.395633012507   112.29956352   357.02152314
 H     19  18  17     1.089066398343   119.75485196   181.63138730
 C     20  19  18     1.580070219357   123.28211153   175.36705671
 H     23  20  19     1.043249164869   102.76107705   217.27479075
 H     23  20  19     1.067734856647   118.01177969   105.66896730
 C     23  20  19     1.565894710030   122.32499128   334.71454813
 H     26  23  20     1.119431420007   117.82300572    61.15756896
 H     26  23  20     1.105781281674   102.85304557   312.70766532
 C     26  23  20     1.540833967378   114.27108319   187.80213357
 H     29  26  23     1.115337519787   106.29404855    45.94133759
 H     29  26  23     1.084015190264   114.43915208   284.18034052
 H     29  26  23     1.067742830695   118.70197274   160.33577568
 H      2   1   3     1.063055732311   132.34628529   193.43757448
 H     18  17   5     1.098970615440   122.43326594   170.77110350

---------------------------
INTERNAL COORDINATES (A.U.)
---------------------------
 S      0   0   0     0.000000000000     0.00000000     0.00000000
 C      1   0   0     3.452322664724     0.00000000     0.00000000
 C      2   1   0     2.626958091305   111.08737450     0.00000000
 C      3   2   1     2.766897706655   108.76754792   358.50759073
 C      4   3   2     2.617213812128   120.38092750     8.59723246
 H      4   3   2     2.082756376212   122.94434014   184.07136277
 C      3   2   1     2.847440548830   130.47862183   192.02479526
 H      7   3   2     2.088857709546   107.54767257   316.24069620
 H      7   3   2     2.107460764144   106.73374533   203.51305387
 C      7   3   2     2.911344433088   113.46704260    77.97109376
 H     10   7   3     2.078327760968   109.87829229   297.34643694
 H     10   7   3     2.115763370371   106.36342493    53.32017717
 C     10   7   3     2.889808088751   113.94343423   176.58356681
 H     13  10   7     2.013186983146   120.09904324   187.06797677
 H     13  10   7     2.092882607204   105.91328585   301.57307270
 H     13  10   7     2.100633632950   112.92435852    65.32752959
 S      5   4   3     5.174955220901   130.22804024   224.20442127
 C     17   5   4     3.307292499073   116.05556685   283.42055223
 C     18  17   5     2.613424621046   112.12755314   339.82393891
 C     19  18  17     2.694740922706   112.63998697     8.76863356
 C     20  19  18     2.637364177098   112.29956352   357.02152314
 H     19  18  17     2.058037234524   119.75485196   181.63138730
 C     20  19  18     2.985899986950   123.28211153   175.36705671
 H     23  20  19     1.971455211045   102.76107705   217.27479075
 H     23  20  19     2.017726462705   118.01177969   105.66896730
 C     23  20  19     2.959112156513   122.32499128   334.71454813
 H     26  23  20     2.115418809521   117.82300572    61.15756896
 H     26  23  20     2.089623786380   102.85304557   312.70766532
 C     26  23  20     2.911754216187   114.27108319   187.80213357
 H     29  26  23     2.107682459284   106.29404855    45.94133759
 H     29  26  23     2.048491834610   114.43915208   284.18034052
 H     29  26  23     2.017741531471   118.70197274   160.33577568
 H      2   1   3     2.008884199164   132.34628529   193.43757448
 H     18  17   5     2.076753492408   122.43326594   170.77110350

---------------------
BASIS SET INFORMATION
---------------------
There are 3 groups of distinct atoms

 Group   1 Type S   : 10s7p1d contracted to 4s3p1d pattern {5311/511/1}
 Group   2 Type C   : 7s4p1d contracted to 3s2p1d pattern {511/31/1}
 Group   3 Type H   : 4s1p contracted to 2s1p pattern {31/1}

Atom   0S    basis set group =>   1
Atom   1C    basis set group =>   2
Atom   2C    basis set group =>   2
Atom   3C    basis set group =>   2
Atom   4C    basis set group =>   2
Atom   5H    basis set group =>   3
Atom   6C    basis set group =>   2
Atom   7H    basis set group =>   3
Atom   8H    basis set group =>   3
Atom   9C    basis set group =>   2
Atom  10H    basis set group =>   3
Atom  11H    basis set group =>   3
Atom  12C    basis set group =>   2
Atom  13H    basis set group =>   3
Atom  14H    basis set group =>   3
Atom  15H    basis set group =>   3
Atom  16S    basis set group =>   1
Atom  17C    basis set group =>   2
Atom  18C    basis set group =>   2
Atom  19C    basis set group =>   2
Atom  20C    basis set group =>   2
Atom  21H    basis set group =>   3
Atom  22C    basis set group =>   2
Atom  23H    basis set group =>   3
Atom  24H    basis set group =>   3
Atom  25C    basis set group =>   2
Atom  26H    basis set group =>   3
Atom  27H    basis set group =>   3
Atom  28C    basis set group =>   2
Atom  29H    basis set group =>   3
Atom  30H    basis set group =>   3
Atom  31H    basis set group =>   3
Atom  32H    basis set group =>   3
Atom  33H    basis set group =>   3


           ************************************************************
           *        Program running with 16 parallel MPI-processes    *
           *              working on a common directory               *
           ************************************************************
------------------------------------------------------------------------------
                           ORCA GTO INTEGRAL CALCULATION
------------------------------------------------------------------------------

                         BASIS SET STATISTICS AND STARTUP INFO

 # of primitive gaussian shells          ...  294
 # of primitive gaussian functions       ...  534
 # of contracted shells                  ...  154
 # of contracted basis functions         ...  322
 Highest angular momentum                ...    2
 Maximum contraction depth               ...    5
 Integral package used                   ... LIBINT
 Integral threshhold            Thresh   ...  1.000e-10
 Primitive cut-off              TCut     ...  1.000e-11


------------------------------ INTEGRAL EVALUATION ----------------------------


 * One electron integrals 
 Pre-screening matrix                    ... done
 Shell pair data                         ... done (   0.003 sec)



           ************************************************************
           *        Program running with 16 parallel MPI-processes    *
           *              working on a common directory               *
           ************************************************************
-------------------------------------------------------------------------------
                                 ORCA SCF
-------------------------------------------------------------------------------

------------
SCF SETTINGS
------------
Hamiltonian:
 Density Functional     Method          .... DFT(GTOs)
 Exchange Functional    Exchange        .... WB97X-D3
 Correlation Functional Correlation     .... WB97X-D3
 Gradients option       PostSCFGGA      .... off
 Hybrid DFT is turned on
   Fraction HF Exchange ScalHFX         ....  0.195728
   Scaling of DF-GGA-X  ScalDFX         ....  0.000000
   Scaling of DF-GGA-C  ScalDFC         ....  1.000000
   Scaling of DF-LDA-C  ScalLDAC        ....  1.000000
   Perturbative correction              ....  0.000000
   Density functional embedding theory  .... OFF
 Long-range corrected/Screened/Range-Separated Hybrid DFT is turned on
   Amount of maximum screened exact exchange              ....  0.804272
   Range separation parameter mu (erf(mu*r12)/r12)        ....  0.250000


General Settings:
 Integral files         IntName         .... config_834
 Hartree-Fock type      HFTyp           .... RHF
 Total Charge           Charge          ....    0
 Multiplicity           Mult            ....    1
 Number of Electrons    NEL             ....  134
 Basis Dimension        Dim             ....  322
 Nuclear Repulsion      ENuc            ....   1254.5991280171 Eh

Convergence Acceleration:
 DIIS                   CNVDIIS         .... on
   Start iteration      DIISMaxIt       ....    12
   Startup error        DIISStart       ....  0.200000
   # of expansion vecs  DIISMaxEq       ....     5
   Bias factor          DIISBfac        ....   1.050
   Max. coefficient     DIISMaxC        ....  10.000
 Newton-Raphson         CNVNR           .... off
 SOSCF                  CNVSOSCF        .... on
   Start iteration      SOSCFMaxIt      ....   150
   Startup grad/error   SOSCFStart      ....  0.003300
 Level Shifting         CNVShift        .... on
   Level shift para.    LevelShift      ....    0.2500
   Turn off err/grad.   ShiftErr        ....    0.0010
 Zerner damping         CNVZerner       .... off
 Static damping         CNVDamp         .... on
   Fraction old density DampFac         ....    0.7000
   Max. Damping (<1)    DampMax         ....    0.9800
   Min. Damping (>=0)   DampMin         ....    0.0000
   Turn off err/grad.   DampErr         ....    0.1000
 Fernandez-Rico         CNVRico         .... off

SCF Procedure:
 Maximum # iterations   MaxIter         ....   125
 SCF integral mode      SCFMode         .... Direct
   Integral package                     .... LIBINT
 Reset frequency        DirectResetFreq ....    20
 Integral Threshold     Thresh          ....  1.000e-10 Eh
 Primitive CutOff       TCut            ....  1.000e-11 Eh

Convergence Tolerance:
 Convergence Check Mode ConvCheckMode   .... Total+1el-Energy
 Convergence forced     ConvForced      .... 0
 Energy Change          TolE            ....  1.000e-06 Eh
 1-El. energy change                    ....  1.000e-03 Eh
 Orbital Gradient       TolG            ....  5.000e-05
 Orbital Rotation angle TolX            ....  5.000e-05
 DIIS Error             TolErr          ....  1.000e-06


Diagonalization of the overlap matrix:
Smallest eigenvalue                        ... 7.337e-04
Time for diagonalization                   ...    0.016 sec
Threshold for overlap eigenvalues          ... 1.000e-08
Number of eigenvalues below threshold      ... 0
Time for construction of square roots      ...    0.025 sec
Total time needed                          ...    0.042 sec

-------------------
DFT GRID GENERATION
-------------------

General Integration Accuracy     IntAcc      ...  4.340
Radial Grid Type                 RadialGrid  ... Gauss-Chebyshev
Angular Grid (max. acc.)         AngularGrid ... Lebedev-110
Angular grid pruning method      GridPruning ... 3 (G Style)
Weight generation scheme         WeightScheme... Becke
Basis function cutoff            BFCut       ...    1.0000e-10
Integration weight cutoff        WCut        ...    1.0000e-14
Grids for H and He will be reduced by one unit

# of grid points (after initial pruning)     ...  41088 (   0.0 sec)
# of grid points (after weights+screening)   ...  37125 (   0.0 sec)
nearest neighbour list constructed           ...    0.0 sec
Grid point re-assignment to atoms done       ...    0.0 sec
Grid point division into batches done        ...    0.0 sec
Reduced shell lists constructed in    0.1 sec

Total number of grid points                  ...    37125
Total number of batches                      ...      595
Average number of points per batch           ...       62
Average number of grid points per atom       ...     1092
Average number of shells per batch           ...    72.05 (46.79%)
Average number of basis functions per batch  ...   143.13 (44.45%)
Average number of large shells per batch     ...    44.90 (62.31%)
Average number of large basis fcns per batch ...    93.10 (65.05%)
Maximum spatial batch extension              ...  21.00, 15.10, 16.35 au
Average spatial batch extension              ...   0.25,  0.24,  0.21 au

Time for grid setup =    0.200 sec

------------------------------
INITIAL GUESS: MODEL POTENTIAL
------------------------------
Loading Hartree-Fock densities                     ... done
Calculating cut-offs                               ... done
Setting up the integral package                    ... done
Initializing the effective Hamiltonian             ... done
Starting the Coulomb interaction                   ... done (   0.0 sec)
Reading the grid                                   ... done
Mapping shells                                     ... done
Starting the XC term evaluation                    ... done (   0.0 sec)
  promolecular density results
     # of electrons  =    133.987113112
     EX              =   -126.646237724
     EC              =     -4.604437984
     EX+EC           =   -131.250675709
Transforming the Hamiltonian                       ... done (   0.0 sec)
Diagonalizing the Hamiltonian                      ... done (   0.0 sec)
Back transforming the eigenvectors                 ... done (   0.0 sec)
Now organizing SCF variables                       ... done
                      ------------------
                      INITIAL GUESS DONE (   0.4 sec)
                      ------------------
--------------
SCF ITERATIONS
--------------
ITER       Energy         Delta-E        Max-DP      RMS-DP      [F,P]     Damp
               ***  Starting incremental Fock matrix formation  ***
  0  -1339.4329653325   0.000000000000 0.06428372  0.00152127  0.1604499 0.7000
  1  -1339.6091070171  -0.176141684621 0.04316613  0.00111270  0.0971541 0.7000
                               ***Turning on DIIS***
  2  -1339.6950612724  -0.085954255249 0.09205988  0.00208935  0.0504903 0.0000
  3  -1339.8251497651  -0.130088492702 0.04412911  0.00096066  0.0421660 0.0000
  4  -1339.8528886263  -0.027738861171 0.00721246  0.00019286  0.0074875 0.0000
                      *** Initiating the SOSCF procedure ***
                           *** Shutting down DIIS ***
                      *** Re-Reading the Fockian *** 
                      *** Removing any level shift *** 
ITER      Energy       Delta-E        Grad      Rot      Max-DP    RMS-DP
  5  -1339.85374126  -0.0008526328  0.001442  0.001442  0.003359  0.000099
               *** Restarting incremental Fock matrix formation ***
  6  -1339.85393362  -0.0001923613  0.001044  0.002961  0.003237  0.000065
  7  -1339.85400230  -0.0000686787  0.000687  0.004036  0.004357  0.000069
  8  -1339.85402044  -0.0000181433  0.000491  0.001032  0.000871  0.000023
  9  -1339.85402681  -0.0000063643  0.000159  0.000416  0.000399  0.000010
 10  -1339.85402736  -0.0000005581  0.000071  0.000209  0.000199  0.000004
                 **** Energy Check signals convergence ****
              ***Rediagonalizing the Fockian in SOSCF/NRSCF***

               *****************************************************
               *                     SUCCESS                       *
               *           SCF CONVERGED AFTER  11 CYCLES          *
               *****************************************************

Setting up the final grid:

General Integration Accuracy     IntAcc      ...  4.670
Radial Grid Type                 RadialGrid  ... Gauss-Chebyshev
Angular Grid (max. acc.)         AngularGrid ... Lebedev-302
Angular grid pruning method      GridPruning ... 3 (G Style)
Weight generation scheme         WeightScheme... Becke
Basis function cutoff            BFCut       ...    1.0000e-10
Integration weight cutoff        WCut        ...    1.0000e-14
Grids for H and He will be reduced by one unit

# of grid points (after initial pruning)     ... 161752 (   0.0 sec)
# of grid points (after weights+screening)   ... 143329 (   0.2 sec)
nearest neighbour list constructed           ...    0.0 sec
Grid point re-assignment to atoms done       ...    0.0 sec
Grid point division into batches done        ...    0.5 sec
Reduced shell lists constructed in    0.7 sec

Total number of grid points                  ...   143329
Total number of batches                      ...     2254
Average number of points per batch           ...       63
Average number of grid points per atom       ...     4216
Average number of shells per batch           ...    65.05 (42.24%)
Average number of basis functions per batch  ...   128.81 (40.00%)
Average number of large shells per batch     ...    39.35 (60.49%)
Average number of large basis fcns per batch ...    80.77 (62.70%)
Maximum spatial batch extension              ...  15.25, 14.89, 13.96 au
Average spatial batch extension              ...   0.16,  0.15,  0.15 au

Final grid set up in    1.1 sec
Final integration                            ... done (   0.3 sec)
Change in XC energy                          ...     0.005278048
Integrated number of electrons               ...   134.000338882
Previous integrated no of electrons          ...   133.995772706

----------------
TOTAL SCF ENERGY
----------------

Total Energy       :        -1339.84874963 Eh          -36459.13802 eV

Components:
Nuclear Repulsion  :         1254.59912802 Eh           34139.37789 eV
Electronic Energy  :        -2594.44787764 Eh          -70598.51591 eV
One Electron Energy:        -4325.75058117 Eh         -117709.65756 eV
Two Electron Energy:         1731.30270353 Eh           47111.14165 eV

Virial components:
Potential Energy   :        -2670.88912596 Eh          -72678.58803 eV
Kinetic Energy     :         1331.04037634 Eh           36219.45000 eV
Virial Ratio       :            2.00661766


DFT components:
N(Alpha)           :       67.000169440938 electrons
N(Beta)            :       67.000169440938 electrons
N(Total)           :      134.000338881875 electrons
E(XC)              :      -94.158185490878 Eh       
DFET-embed. en.    :        0.000000000000 Eh       

---------------
SCF CONVERGENCE
---------------

  Last Energy change         ...   -3.0955e-07  Tolerance :   1.0000e-06
  Last MAX-Density change    ...    3.1846e-05  Tolerance :   1.0000e-05
  Last RMS-Density change    ...    7.1058e-07  Tolerance :   1.0000e-06
  Last Orbital Gradient      ...    9.9960e-06  Tolerance :   5.0000e-05
  Last Orbital Rotation      ...    1.6168e-05  Tolerance :   5.0000e-05

             **** THE GBW FILE WAS UPDATED (config_834.gbw) ****
             **** DENSITY FILE WAS UPDATED (config_834.scfp) ****
             **** ENERGY FILE WAS UPDATED (config_834.en.tmp) ****
             **** THE GBW FILE WAS UPDATED (config_834.gbw) ****
             **** DENSITY FILE WAS UPDATED (config_834.scfp) ****
----------------
ORBITAL ENERGIES
----------------

  NO   OCC          E(Eh)            E(eV) 
   0   2.0000     -88.969198     -2420.9750 
   1   2.0000     -88.966080     -2420.8901 
   2   2.0000     -10.332601      -281.1644 
   3   2.0000     -10.329934      -281.0918 
   4   2.0000     -10.323705      -280.9223 
   5   2.0000     -10.320163      -280.8259 
   6   2.0000     -10.316113      -280.7157 
   7   2.0000     -10.305235      -280.4197 
   8   2.0000     -10.300418      -280.2886 
   9   2.0000     -10.298637      -280.2402 
  10   2.0000     -10.296283      -280.1761 
  11   2.0000     -10.295431      -280.1529 
  12   2.0000     -10.294472      -280.1268 
  13   2.0000     -10.291407      -280.0434 
  14   2.0000     -10.282020      -279.7880 
  15   2.0000     -10.281318      -279.7689 
  16   2.0000      -8.084002      -219.9769 
  17   2.0000      -8.078905      -219.8382 
  18   2.0000      -6.042431      -164.4229 
  19   2.0000      -6.038578      -164.3181 
  20   2.0000      -6.037793      -164.2967 
  21   2.0000      -6.034735      -164.2135 
  22   2.0000      -6.033726      -164.1860 
  23   2.0000      -6.029290      -164.0653 
  24   2.0000      -1.003993       -27.3200 
  25   2.0000      -0.975651       -26.5488 
  26   2.0000      -0.911946       -24.8153 
  27   2.0000      -0.902624       -24.5617 
  28   2.0000      -0.871223       -23.7072 
  29   2.0000      -0.851279       -23.1645 
  30   2.0000      -0.840409       -22.8687 
  31   2.0000      -0.811185       -22.0735 
  32   2.0000      -0.784494       -21.3472 
  33   2.0000      -0.775691       -21.1076 
  34   2.0000      -0.708345       -19.2751 
  35   2.0000      -0.703401       -19.1405 
  36   2.0000      -0.700685       -19.0666 
  37   2.0000      -0.656060       -17.8523 
  38   2.0000      -0.636653       -17.3242 
  39   2.0000      -0.614067       -16.7096 
  40   2.0000      -0.600634       -16.3441 
  41   2.0000      -0.569518       -15.4974 
  42   2.0000      -0.563317       -15.3286 
  43   2.0000      -0.560722       -15.2580 
  44   2.0000      -0.523667       -14.2497 
  45   2.0000      -0.521158       -14.1814 
  46   2.0000      -0.515518       -14.0280 
  47   2.0000      -0.512590       -13.9483 
  48   2.0000      -0.507629       -13.8133 
  49   2.0000      -0.499856       -13.6018 
  50   2.0000      -0.494710       -13.4617 
  51   2.0000      -0.477886       -13.0039 
  52   2.0000      -0.471622       -12.8335 
  53   2.0000      -0.460263       -12.5244 
  54   2.0000      -0.457250       -12.4424 
  55   2.0000      -0.453822       -12.3491 
  56   2.0000      -0.447223       -12.1696 
  57   2.0000      -0.435243       -11.8436 
  58   2.0000      -0.426250       -11.5989 
  59   2.0000      -0.424473       -11.5505 
  60   2.0000      -0.421643       -11.4735 
  61   2.0000      -0.416503       -11.3336 
  62   2.0000      -0.412836       -11.2338 
  63   2.0000      -0.344432        -9.3725 
  64   2.0000      -0.333853        -9.0846 
  65   2.0000      -0.326566        -8.8863 
  66   2.0000      -0.296569        -8.0701 
  67   0.0000       0.026393         0.7182 
  68   0.0000       0.058384         1.5887 
  69   0.0000       0.104884         2.8540 
  70   0.0000       0.120463         3.2780 
  71   0.0000       0.125836         3.4242 
  72   0.0000       0.131155         3.5689 
  73   0.0000       0.147870         4.0237 
  74   0.0000       0.149676         4.0729 
  75   0.0000       0.159501         4.3403 
  76   0.0000       0.165622         4.5068 
  77   0.0000       0.176312         4.7977 
  78   0.0000       0.189055         5.1444 
  79   0.0000       0.193128         5.2553 
  80   0.0000       0.195988         5.3331 
  81   0.0000       0.197338         5.3698 
  82   0.0000       0.203060         5.5255 
  83   0.0000       0.213694         5.8149 
  84   0.0000       0.216990         5.9046 
  85   0.0000       0.229799         6.2531 
  86   0.0000       0.233854         6.3635 
  87   0.0000       0.235401         6.4056 
  88   0.0000       0.243821         6.6347 
  89   0.0000       0.248439         6.7604 
  90   0.0000       0.256436         6.9780 
  91   0.0000       0.259643         7.0652 
  92   0.0000       0.271687         7.3930 
  93   0.0000       0.290499         7.9049 
  94   0.0000       0.304092         8.2748 
  95   0.0000       0.316324         8.6076 
  96   0.0000       0.321538         8.7495 
  97   0.0000       0.331151         9.0111 
  98   0.0000       0.335133         9.1194 
  99   0.0000       0.371120        10.0987 
 100   0.0000       0.382649        10.4124 
 101   0.0000       0.395776        10.7696 
 102   0.0000       0.409132        11.1331 
 103   0.0000       0.414591        11.2816 
 104   0.0000       0.421702        11.4751 
 105   0.0000       0.444129        12.0854 
 106   0.0000       0.462185        12.5767 
 107   0.0000       0.478578        13.0228 
 108   0.0000       0.494942        13.4681 
 109   0.0000       0.496634        13.5141 
 110   0.0000       0.506510        13.7829 
 111   0.0000       0.510903        13.9024 
 112   0.0000       0.515032        14.0147 
 113   0.0000       0.523426        14.2431 
 114   0.0000       0.524224        14.2649 
 115   0.0000       0.529642        14.4123 
 116   0.0000       0.540281        14.7018 
 117   0.0000       0.541975        14.7479 
 118   0.0000       0.555640        15.1197 
 119   0.0000       0.561750        15.2860 
 120   0.0000       0.569439        15.4952 
 121   0.0000       0.586317        15.9545 
 122   0.0000       0.599735        16.3196 
 123   0.0000       0.604722        16.4553 
 124   0.0000       0.610862        16.6224 
 125   0.0000       0.617139        16.7932 
 126   0.0000       0.632624        17.2146 
 127   0.0000       0.639195        17.3934 
 128   0.0000       0.651666        17.7327 
 129   0.0000       0.659120        17.9356 
 130   0.0000       0.662262        18.0211 
 131   0.0000       0.683801        18.6072 
 132   0.0000       0.689729        18.7685 
 133   0.0000       0.694644        18.9022 
 134   0.0000       0.701984        19.1020 
 135   0.0000       0.704610        19.1734 
 136   0.0000       0.707457        19.2509 
 137   0.0000       0.721769        19.6403 
 138   0.0000       0.727751        19.8031 
 139   0.0000       0.734638        19.9905 
 140   0.0000       0.744204        20.2508 
 141   0.0000       0.746707        20.3189 
 142   0.0000       0.754125        20.5208 
 143   0.0000       0.756841        20.5947 
 144   0.0000       0.760022        20.6813 
 145   0.0000       0.762286        20.7429 
 146   0.0000       0.769378        20.9358 
 147   0.0000       0.772759        21.0278 
 148   0.0000       0.776415        21.1273 
 149   0.0000       0.780906        21.2495 
 150   0.0000       0.783841        21.3294 
 151   0.0000       0.787775        21.4364 
 152   0.0000       0.792543        21.5662 
 153   0.0000       0.794213        21.6116 
 154   0.0000       0.800758        21.7897 
 155   0.0000       0.801544        21.8111 
 156   0.0000       0.804420        21.8894 
 157   0.0000       0.808040        21.9879 
 158   0.0000       0.814468        22.1628 
 159   0.0000       0.818303        22.2672 
 160   0.0000       0.822229        22.3740 
 161   0.0000       0.826249        22.4834 
 162   0.0000       0.829550        22.5732 
 163   0.0000       0.838755        22.8237 
 164   0.0000       0.850832        23.1523 
 165   0.0000       0.855909        23.2905 
 166   0.0000       0.864806        23.5326 
 167   0.0000       0.871296        23.7092 
 168   0.0000       0.885443        24.0941 
 169   0.0000       0.899672        24.4813 
 170   0.0000       0.906245        24.6602 
 171   0.0000       0.920068        25.0363 
 172   0.0000       0.924472        25.1562 
 173   0.0000       0.946002        25.7420 
 174   0.0000       0.956757        26.0347 
 175   0.0000       0.962146        26.1813 
 176   0.0000       0.976256        26.5653 
 177   0.0000       0.992046        26.9949 
 178   0.0000       1.000625        27.2284 
 179   0.0000       1.026708        27.9382 
 180   0.0000       1.051370        28.6092 
 181   0.0000       1.062015        28.8989 
 182   0.0000       1.068410        29.0729 
 183   0.0000       1.085495        29.5378 
 184   0.0000       1.110729        30.2245 
 185   0.0000       1.120425        30.4883 
 186   0.0000       1.126787        30.6614 
 187   0.0000       1.139901        31.0183 
 188   0.0000       1.155689        31.4479 
 189   0.0000       1.167626        31.7727 
 190   0.0000       1.211039        32.9540 
 191   0.0000       1.223680        33.2980 
 192   0.0000       1.240604        33.7586 
 193   0.0000       1.252039        34.0697 
 194   0.0000       1.268924        34.5292 
 195   0.0000       1.283844        34.9352 
 196   0.0000       1.298670        35.3386 
 197   0.0000       1.329745        36.1842 
 198   0.0000       1.373596        37.3775 
 199   0.0000       1.375630        37.4328 
 200   0.0000       1.387228        37.7484 
 201   0.0000       1.398350        38.0510 
 202   0.0000       1.425331        38.7852 
 203   0.0000       1.440050        39.1858 
 204   0.0000       1.448870        39.4258 
 205   0.0000       1.464164        39.8419 
 206   0.0000       1.468213        39.9521 
 207   0.0000       1.503087        40.9011 
 208   0.0000       1.539592        41.8944 
 209   0.0000       1.546522        42.0830 
 210   0.0000       1.559633        42.4398 
 211   0.0000       1.598537        43.4984 
 212   0.0000       1.608495        43.7694 
 213   0.0000       1.623643        44.1816 
 214   0.0000       1.646802        44.8118 
 215   0.0000       1.656447        45.0742 
 216   0.0000       1.658470        45.1293 
 217   0.0000       1.692293        46.0496 
 218   0.0000       1.734302        47.1928 
 219   0.0000       1.783733        48.5378 
 220   0.0000       1.787982        48.6535 
 221   0.0000       1.800232        48.9868 
 222   0.0000       1.807212        49.1767 
 223   0.0000       1.810829        49.2752 
 224   0.0000       1.828700        49.7615 
 225   0.0000       1.834212        49.9115 
 226   0.0000       1.837714        50.0067 
 227   0.0000       1.841878        50.1200 
 228   0.0000       1.849685        50.3325 
 229   0.0000       1.856951        50.5302 
 230   0.0000       1.865107        50.7521 
 231   0.0000       1.867628        50.8207 
 232   0.0000       1.886013        51.3210 
 233   0.0000       1.888390        51.3857 
 234   0.0000       1.893594        51.5273 
 235   0.0000       1.903775        51.8043 
 236   0.0000       1.910215        51.9796 
 237   0.0000       1.915184        52.1148 
 238   0.0000       1.922772        52.3213 
 239   0.0000       1.937274        52.7159 
 240   0.0000       1.941716        52.8368 
 241   0.0000       1.951701        53.1085 
 242   0.0000       1.959396        53.3179 
 243   0.0000       1.969612        53.5959 
 244   0.0000       1.972830        53.6834 
 245   0.0000       1.978815        53.8463 
 246   0.0000       1.984772        54.0084 
 247   0.0000       1.992503        54.2188 
 248   0.0000       1.999246        54.4023 
 249   0.0000       2.013146        54.7805 
 250   0.0000       2.022773        55.0425 
 251   0.0000       2.031609        55.2829 
 252   0.0000       2.048091        55.7314 
 253   0.0000       2.068694        56.2920 
 254   0.0000       2.083385        56.6918 
 255   0.0000       2.088393        56.8281 
 256   0.0000       2.102348        57.2078 
 257   0.0000       2.113709        57.5169 
 258   0.0000       2.124026        57.7977 
 259   0.0000       2.139466        58.2178 
 260   0.0000       2.166529        58.9542 
 261   0.0000       2.172509        59.1170 
 262   0.0000       2.187156        59.5156 
 263   0.0000       2.209012        60.1103 
 264   0.0000       2.216933        60.3258 
 265   0.0000       2.230535        60.6959 
 266   0.0000       2.248036        61.1722 
 267   0.0000       2.261038        61.5260 
 268   0.0000       2.283694        62.1425 
 269   0.0000       2.290227        62.3202 
 270   0.0000       2.321359        63.1674 
 271   0.0000       2.341220        63.7078 
 272   0.0000       2.374940        64.6254 
 273   0.0000       2.388678        64.9992 
 274   0.0000       2.396089        65.2009 
 275   0.0000       2.412274        65.6413 
 276   0.0000       2.422188        65.9111 
 277   0.0000       2.449092        66.6432 
 278   0.0000       2.450583        66.6838 
 279   0.0000       2.461588        66.9832 
 280   0.0000       2.485124        67.6237 
 281   0.0000       2.499796        68.0229 
 282   0.0000       2.503974        68.1366 
 283   0.0000       2.515026        68.4373 
 284   0.0000       2.525310        68.7172 
 285   0.0000       2.545871        69.2767 
 286   0.0000       2.563211        69.7485 
 287   0.0000       2.578480        70.1640 
 288   0.0000       2.581899        70.2570 
 289   0.0000       2.610608        71.0383 
 290   0.0000       2.634065        71.6766 
 291   0.0000       2.634746        71.6951 
 292   0.0000       2.670149        72.6585 
 293   0.0000       2.690189        73.2038 
 294   0.0000       2.710795        73.7645 
 295   0.0000       2.730647        74.3047 
 296   0.0000       2.751255        74.8654 
 297   0.0000       2.764647        75.2299 
 298   0.0000       2.773895        75.4815 
 299   0.0000       2.792909        75.9989 
 300   0.0000       2.821148        76.7673 
 301   0.0000       2.847219        77.4768 
 302   0.0000       2.872042        78.1522 
 303   0.0000       2.885680        78.5233 
 304   0.0000       2.938197        79.9524 
 305   0.0000       2.960683        80.5643 
 306   0.0000       2.973918        80.9244 
 307   0.0000       3.002758        81.7092 
 308   0.0000       3.015594        82.0585 
 309   0.0000       3.023049        82.2613 
 310   0.0000       3.059691        83.2584 
 311   0.0000       3.063231        83.3548 
 312   0.0000       3.102570        84.4252 
 313   0.0000       3.128494        85.1306 
 314   0.0000       3.138689        85.4081 
 315   0.0000       3.154158        85.8290 
 316   0.0000       3.162485        86.0556 
 317   0.0000       3.190581        86.8201 
 318   0.0000       3.222405        87.6861 
 319   0.0000       3.234351        88.0112 
 320   0.0000       3.319792        90.3361 
 321   0.0000       3.398860        92.4877 

                    ********************************
                    * MULLIKEN POPULATION ANALYSIS *
                    ********************************

-----------------------
MULLIKEN ATOMIC CHARGES
-----------------------
   0 S :    0.088422
   1 C :   -0.084553
   2 C :   -0.106219
   3 C :    0.015483
   4 C :   -0.160796
   5 H :    0.019334
   6 C :    0.045721
   7 H :    0.028556
   8 H :    0.032704
   9 C :   -0.073184
  10 H :    0.031064
  11 H :    0.040035
  12 C :   -0.042902
  13 H :    0.029902
  14 H :    0.027266
  15 H :    0.036636
  16 S :    0.117313
  17 C :   -0.103274
  18 C :   -0.038861
  19 C :   -0.024602
  20 C :   -0.145371
  21 H :    0.029010
  22 C :    0.111732
  23 H :   -0.002201
  24 H :    0.034565
  25 C :   -0.112775
  26 H :    0.034220
  27 H :    0.024628
  28 C :   -0.046593
  29 H :    0.027384
  30 H :    0.040031
  31 H :    0.028312
  32 H :    0.031347
  33 H :    0.067669
Sum of atomic charges:   -0.0000000

--------------------------------
MULLIKEN REDUCED ORBITAL CHARGES
--------------------------------
  0 S s       :     5.855059  s :     5.855059
      pz      :     3.087758  p :     9.962200
      px      :     3.459023
      py      :     3.415419
      dz2     :     0.032822  d :     0.094320
      dxz     :     0.013605
      dyz     :     0.016432
      dx2y2   :     0.012089
      dxy     :     0.019371
  1 C s       :     3.175281  s :     3.175281
      pz      :     0.967397  p :     2.877401
      px      :     0.977898
      py      :     0.932106
      dz2     :     0.008064  d :     0.031870
      dxz     :     0.005535
      dyz     :     0.007899
      dx2y2   :     0.004637
      dxy     :     0.005735
  2 C s       :     3.099489  s :     3.099489
      pz      :     0.991662  p :     2.964266
      px      :     0.989425
      py      :     0.983180
      dz2     :     0.008645  d :     0.042465
      dxz     :     0.009309
      dyz     :     0.011401
      dx2y2   :     0.007039
      dxy     :     0.006071
  3 C s       :     3.177989  s :     3.177989
      pz      :     0.893427  p :     2.772937
      px      :     0.967023
      py      :     0.912487
      dz2     :     0.008264  d :     0.033591
      dxz     :     0.004657
      dyz     :     0.007430
      dx2y2   :     0.007362
      dxy     :     0.005878
  4 C s       :     3.084378  s :     3.084378
      pz      :     0.948147  p :     3.031913
      px      :     1.068898
      py      :     1.014868
      dz2     :     0.013046  d :     0.044504
      dxz     :     0.007410
      dyz     :     0.009268
      dx2y2   :     0.007970
      dxy     :     0.006811
  5 H s       :     0.957874  s :     0.957874
      pz      :     0.012995  p :     0.022792
      px      :     0.004402
      py      :     0.005395
  6 C s       :     2.982727  s :     2.982727
      pz      :     1.004658  p :     2.936406
      px      :     1.013707
      py      :     0.918041
      dz2     :     0.007496  d :     0.035147
      dxz     :     0.007030
      dyz     :     0.003952
      dx2y2   :     0.008731
      dxy     :     0.007938
  7 H s       :     0.949298  s :     0.949298
      pz      :     0.007508  p :     0.022146
      px      :     0.010885
      py      :     0.003753
  8 H s       :     0.945687  s :     0.945687
      pz      :     0.013139  p :     0.021609
      px      :     0.005084
      py      :     0.003386
  9 C s       :     3.069020  s :     3.069020
      pz      :     1.026173  p :     2.968258
      px      :     1.007198
      py      :     0.934887
      dz2     :     0.008728  d :     0.035906
      dxz     :     0.005881
      dyz     :     0.004826
      dx2y2   :     0.008070
      dxy     :     0.008400
 10 H s       :     0.946968  s :     0.946968
      pz      :     0.013555  p :     0.021968
      px      :     0.004668
      py      :     0.003745
 11 H s       :     0.938766  s :     0.938766
      pz      :     0.006676  p :     0.021199
      px      :     0.011055
      py      :     0.003468
 12 C s       :     3.012473  s :     3.012473
      pz      :     1.016444  p :     3.002323
      px      :     1.032831
      py      :     0.953047
      dz2     :     0.007975  d :     0.028106
      dxz     :     0.004480
      dyz     :     0.002811
      dx2y2   :     0.005308
      dxy     :     0.007532
 13 H s       :     0.944833  s :     0.944833
      pz      :     0.006250  p :     0.025266
      px      :     0.008210
      py      :     0.010806
 14 H s       :     0.949495  s :     0.949495
      pz      :     0.013468  p :     0.023239
      px      :     0.005095
      py      :     0.004676
 15 H s       :     0.940693  s :     0.940693
      pz      :     0.007244  p :     0.022672
      px      :     0.010972
      py      :     0.004456
 16 S s       :     5.845561  s :     5.845561
      pz      :     3.212025  p :     9.931491
      px      :     3.060822
      py      :     3.658644
      dz2     :     0.035153  d :     0.105634
      dxz     :     0.018857
      dyz     :     0.014526
      dx2y2   :     0.020648
      dxy     :     0.016451
 17 C s       :     3.162823  s :     3.162823
      pz      :     0.857615  p :     2.905439
      px      :     0.968630
      py      :     1.079193
      dz2     :     0.011202  d :     0.035013
      dxz     :     0.007814
      dyz     :     0.005829
      dx2y2   :     0.005312
      dxy     :     0.004856
 18 C s       :     3.191838  s :     3.191838
      pz      :     0.876397  p :     2.812584
      px      :     0.927003
      py      :     1.009185
      dz2     :     0.008098  d :     0.034438
      dxz     :     0.010243
      dyz     :     0.003170
      dx2y2   :     0.005169
      dxy     :     0.007758
 19 C s       :     3.063750  s :     3.063750
      pz      :     0.961750  p :     2.919309
      px      :     0.975222
      py      :     0.982337
      dz2     :     0.010018  d :     0.041543
      dxz     :     0.011452
      dyz     :     0.006500
      dx2y2   :     0.006319
      dxy     :     0.007254
 20 C s       :     3.073071  s :     3.073071
      pz      :     1.024971  p :     3.028190
      px      :     0.879486
      py      :     1.123734
      dz2     :     0.010526  d :     0.044110
      dxz     :     0.009603
      dyz     :     0.008125
      dx2y2   :     0.009063
      dxy     :     0.006794
 21 H s       :     0.947663  s :     0.947663
      pz      :     0.014640  p :     0.023327
      px      :     0.003159
      py      :     0.005528
 22 C s       :     2.917515  s :     2.917515
      pz      :     0.946943  p :     2.936959
      px      :     0.949295
      py      :     1.040721
      dz2     :     0.007107  d :     0.033795
      dxz     :     0.007054
      dyz     :     0.006767
      dx2y2   :     0.004451
      dxy     :     0.008415
 23 H s       :     0.975492  s :     0.975492
      pz      :     0.007195  p :     0.026709
      px      :     0.007356
      py      :     0.012157
 24 H s       :     0.940818  s :     0.940818
      pz      :     0.005867  p :     0.024617
      px      :     0.006606
      py      :     0.012144
 25 C s       :     3.080772  s :     3.080772
      pz      :     0.975372  p :     2.996733
      px      :     0.973939
      py      :     1.047422
      dz2     :     0.008255  d :     0.035269
      dxz     :     0.007159
      dyz     :     0.007236
      dx2y2   :     0.005347
      dxy     :     0.007272
 26 H s       :     0.944174  s :     0.944174
      pz      :     0.007047  p :     0.021606
      px      :     0.005581
      py      :     0.008978
 27 H s       :     0.952967  s :     0.952967
      pz      :     0.005120  p :     0.022405
      px      :     0.005946
      py      :     0.011339
 28 C s       :     3.013725  s :     3.013725
      pz      :     1.025232  p :     3.005016
      px      :     0.959663
      py      :     1.020120
      dz2     :     0.005320  d :     0.027852
      dxz     :     0.005150
      dyz     :     0.004701
      dx2y2   :     0.005108
      dxy     :     0.007573
 29 H s       :     0.949488  s :     0.949488
      pz      :     0.009217  p :     0.023128
      px      :     0.005681
      py      :     0.008230
 30 H s       :     0.936125  s :     0.936125
      pz      :     0.005605  p :     0.023844
      px      :     0.005796
      py      :     0.012444
 31 H s       :     0.946291  s :     0.946291
      pz      :     0.013051  p :     0.025397
      px      :     0.004853
      py      :     0.007494
 32 H s       :     0.942866  s :     0.942866
      pz      :     0.012786  p :     0.025786
      px      :     0.006433
      py      :     0.006568
 33 H s       :     0.909424  s :     0.909424
      pz      :     0.004259  p :     0.022908
      px      :     0.013492
      py      :     0.005156


                     *******************************
                     * LOEWDIN POPULATION ANALYSIS *
                     *******************************

----------------------
LOEWDIN ATOMIC CHARGES
----------------------
   0 S :    0.358110
   1 C :   -0.171119
   2 C :   -0.063426
   3 C :   -0.064099
   4 C :   -0.190084
   5 H :    0.028364
   6 C :   -0.035965
   7 H :    0.032374
   8 H :    0.034877
   9 C :   -0.041551
  10 H :    0.025290
  11 H :    0.031434
  12 C :   -0.072683
  13 H :    0.023106
  14 H :    0.028063
  15 H :    0.029601
  16 S :    0.410768
  17 C :   -0.179850
  18 C :   -0.075058
  19 C :   -0.038200
  20 C :   -0.203457
  21 H :    0.036024
  22 C :   -0.026219
  23 H :    0.022697
  24 H :    0.030845
  25 C :   -0.050187
  26 H :    0.022783
  27 H :    0.022872
  28 C :   -0.066551
  29 H :    0.029652
  30 H :    0.027402
  31 H :    0.025267
  32 H :    0.025420
  33 H :    0.033502

-------------------------------
LOEWDIN REDUCED ORBITAL CHARGES
-------------------------------
  0 S s       :     5.546951  s :     5.546951
      pz      :     3.120957  p :     9.980004
      px      :     3.445248
      py      :     3.413800
      dz2     :     0.042525  d :     0.114935
      dxz     :     0.016675
      dyz     :     0.019556
      dx2y2   :     0.013115
      dxy     :     0.023064
  1 C s       :     2.937338  s :     2.937338
      pz      :     1.084797  p :     3.159134
      px      :     1.039915
      py      :     1.034422
      dz2     :     0.020741  d :     0.074647
      dxz     :     0.011735
      dyz     :     0.021203
      dx2y2   :     0.009477
      dxy     :     0.011491
  2 C s       :     2.872008  s :     2.872008
      pz      :     1.065393  p :     3.087338
      px      :     0.992190
      py      :     1.029755
      dz2     :     0.022269  d :     0.104080
      dxz     :     0.022443
      dyz     :     0.030727
      dx2y2   :     0.015254
      dxy     :     0.013387
  3 C s       :     2.882464  s :     2.882464
      pz      :     1.036933  p :     3.093522
      px      :     1.023316
      py      :     1.033273
      dz2     :     0.021686  d :     0.088114
      dxz     :     0.012113
      dyz     :     0.021774
      dx2y2   :     0.017135
      dxy     :     0.015405
  4 C s       :     2.909946  s :     2.909946
      pz      :     1.007791  p :     3.174212
      px      :     1.079123
      py      :     1.087298
      dz2     :     0.031437  d :     0.105925
      dxz     :     0.017916
      dyz     :     0.021983
      dx2y2   :     0.017898
      dxy     :     0.016691
  5 H s       :     0.904233  s :     0.904233
      pz      :     0.037904  p :     0.067403
      px      :     0.013378
      py      :     0.016121
  6 C s       :     2.836956  s :     2.836956
      pz      :     1.059847  p :     3.111052
      px      :     1.046819
      py      :     1.004386
      dz2     :     0.019737  d :     0.087958
      dxz     :     0.017532
      dyz     :     0.008746
      dx2y2   :     0.020690
      dxy     :     0.021254
  7 H s       :     0.902574  s :     0.902574
      pz      :     0.020567  p :     0.065053
      px      :     0.032023
      py      :     0.012463
  8 H s       :     0.902171  s :     0.902171
      pz      :     0.037003  p :     0.062953
      px      :     0.014836
      py      :     0.011114
  9 C s       :     2.844280  s :     2.844280
      pz      :     1.063786  p :     3.110354
      px      :     1.043825
      py      :     1.002743
      dz2     :     0.022180  d :     0.086917
      dxz     :     0.014183
      dyz     :     0.009766
      dx2y2   :     0.019385
      dxy     :     0.021402
 10 H s       :     0.909339  s :     0.909339
      pz      :     0.038712  p :     0.065371
      px      :     0.014075
      py      :     0.012584
 11 H s       :     0.906493  s :     0.906493
      pz      :     0.018113  p :     0.062073
      px      :     0.032454
      py      :     0.011506
 12 C s       :     2.834312  s :     2.834312
      pz      :     1.061085  p :     3.166756
      px      :     1.078633
      py      :     1.027037
      dz2     :     0.020960  d :     0.071615
      dxz     :     0.011526
      dyz     :     0.005761
      dx2y2   :     0.014082
      dxy     :     0.019287
 13 H s       :     0.904594  s :     0.904594
      pz      :     0.016321  p :     0.072300
      px      :     0.023506
      py      :     0.032473
 14 H s       :     0.907981  s :     0.907981
      pz      :     0.037605  p :     0.063957
      px      :     0.013730
      py      :     0.012622
 15 H s       :     0.907571  s :     0.907571
      pz      :     0.019743  p :     0.062828
      px      :     0.030396
      py      :     0.012689
 16 S s       :     5.515627  s :     5.515627
      pz      :     3.239249  p :     9.943925
      px      :     3.089801
      py      :     3.614875
      dz2     :     0.044584  d :     0.129680
      dxz     :     0.022139
      dyz     :     0.016041
      dx2y2   :     0.027125
      dxy     :     0.019790
 17 C s       :     2.941994  s :     2.941994
      pz      :     0.997149  p :     3.156494
      px      :     1.082093
      py      :     1.077252
      dz2     :     0.026383  d :     0.081362
      dxz     :     0.021110
      dyz     :     0.012008
      dx2y2   :     0.012581
      dxy     :     0.009280
 18 C s       :     2.870036  s :     2.870036
      pz      :     1.047395  p :     3.115041
      px      :     1.052858
      py      :     1.014788
      dz2     :     0.021266  d :     0.089981
      dxz     :     0.031191
      dyz     :     0.006153
      dx2y2   :     0.013919
      dxy     :     0.017452
 19 C s       :     2.870333  s :     2.870333
      pz      :     1.049627  p :     3.066000
      px      :     1.034467
      py      :     0.981906
      dz2     :     0.026534  d :     0.101868
      dxz     :     0.032575
      dyz     :     0.014518
      dx2y2   :     0.014926
      dxy     :     0.013314
 20 C s       :     2.902132  s :     2.902132
      pz      :     1.086586  p :     3.194824
      px      :     1.001545
      py      :     1.106694
      dz2     :     0.027797  d :     0.106500
      dxz     :     0.025586
      dyz     :     0.018380
      dx2y2   :     0.019791
      dxy     :     0.014946
 21 H s       :     0.894764  s :     0.894764
      pz      :     0.041568  p :     0.069212
      px      :     0.010993
      py      :     0.016651
 22 C s       :     2.820447  s :     2.820447
      pz      :     1.020960  p :     3.122510
      px      :     1.004544
      py      :     1.097007
      dz2     :     0.019829  d :     0.083263
      dxz     :     0.016538
      dyz     :     0.014507
      dx2y2   :     0.012648
      dxy     :     0.019740
 23 H s       :     0.897859  s :     0.897859
      pz      :     0.023153  p :     0.079444
      px      :     0.023165
      py      :     0.033126
 24 H s       :     0.895908  s :     0.895908
      pz      :     0.018201  p :     0.073247
      px      :     0.022468
      py      :     0.032578
 25 C s       :     2.847919  s :     2.847919
      pz      :     1.011641  p :     3.118516
      px      :     1.025271
      py      :     1.081605
      dz2     :     0.021157  d :     0.083752
      dxz     :     0.016011
      dyz     :     0.015839
      dx2y2   :     0.013832
      dxy     :     0.016913
 26 H s       :     0.913856  s :     0.913856
      pz      :     0.022376  p :     0.063361
      px      :     0.016910
      py      :     0.024075
 27 H s       :     0.910960  s :     0.910960
      pz      :     0.015491  p :     0.066168
      px      :     0.019051
      py      :     0.031626
 28 C s       :     2.830998  s :     2.830998
      pz      :     1.077878  p :     3.164474
      px      :     1.017498
      py      :     1.069099
      dz2     :     0.014008  d :     0.071079
      dxz     :     0.012580
      dyz     :     0.012482
      dx2y2   :     0.014949
      dxy     :     0.017060
 29 H s       :     0.907786  s :     0.907786
      pz      :     0.023815  p :     0.062562
      px      :     0.016697
      py      :     0.022050
 30 H s       :     0.905035  s :     0.905035
      pz      :     0.014297  p :     0.067563
      px      :     0.018638
      py      :     0.034628
 31 H s       :     0.903301  s :     0.903301
      pz      :     0.035569  p :     0.071432
      px      :     0.016365
      py      :     0.019498
 32 H s       :     0.894618  s :     0.894618
      pz      :     0.036480  p :     0.079962
      px      :     0.020934
      py      :     0.022548
 33 H s       :     0.894952  s :     0.894952
      pz      :     0.015777  p :     0.071546
      px      :     0.038729
      py      :     0.017040


                      *****************************
                      * MAYER POPULATION ANALYSIS *
                      *****************************

  NA   - Mulliken gross atomic population
  ZA   - Total nuclear charge
  QA   - Mulliken gross atomic charge
  VA   - Mayer's total valence
  BVA  - Mayer's bonded valence
  FA   - Mayer's free valence

  ATOM       NA         ZA         QA         VA         BVA        FA
  0 S     15.9116    16.0000     0.0884     2.4094     2.4094     0.0000
  1 C      6.0846     6.0000    -0.0846     3.8472     3.8472    -0.0000
  2 C      6.1062     6.0000    -0.1062     4.0317     4.0317     0.0000
  3 C      5.9845     6.0000     0.0155     3.9264     3.9264     0.0000
  4 C      6.1608     6.0000    -0.1608     3.9175     3.9175    -0.0000
  5 H      0.9807     1.0000     0.0193     0.9987     0.9987     0.0000
  6 C      5.9543     6.0000     0.0457     3.9499     3.9499    -0.0000
  7 H      0.9714     1.0000     0.0286     0.9860     0.9860    -0.0000
  8 H      0.9673     1.0000     0.0327     0.9894     0.9894     0.0000
  9 C      6.0732     6.0000    -0.0732     4.0644     4.0644    -0.0000
 10 H      0.9689     1.0000     0.0311     0.9805     0.9805     0.0000
 11 H      0.9600     1.0000     0.0400     0.9815     0.9815    -0.0000
 12 C      6.0429     6.0000    -0.0429     3.9903     3.9903    -0.0000
 13 H      0.9701     1.0000     0.0299     0.9873     0.9873    -0.0000
 14 H      0.9727     1.0000     0.0273     0.9892     0.9892     0.0000
 15 H      0.9634     1.0000     0.0366     0.9882     0.9882     0.0000
 16 S     15.8827    16.0000     0.1173     2.4940     2.4940    -0.0000
 17 C      6.1033     6.0000    -0.1033     3.8397     3.8397    -0.0000
 18 C      6.0389     6.0000    -0.0389     3.9496     3.9496     0.0000
 19 C      6.0246     6.0000    -0.0246     4.0147     4.0147     0.0000
 20 C      6.1454     6.0000    -0.1454     3.9097     3.9097    -0.0000
 21 H      0.9710     1.0000     0.0290     0.9972     0.9972     0.0000
 22 C      5.8883     6.0000     0.1117     3.9278     3.9278    -0.0000
 23 H      1.0022     1.0000    -0.0022     1.0169     1.0169    -0.0000
 24 H      0.9654     1.0000     0.0346     0.9918     0.9918    -0.0000
 25 C      6.1128     6.0000    -0.1128     4.0743     4.0743     0.0000
 26 H      0.9658     1.0000     0.0342     0.9734     0.9734    -0.0000
 27 H      0.9754     1.0000     0.0246     0.9741     0.9741     0.0000
 28 C      6.0466     6.0000    -0.0466     4.0060     4.0060    -0.0000
 29 H      0.9726     1.0000     0.0274     0.9922     0.9922    -0.0000
 30 H      0.9600     1.0000     0.0400     0.9875     0.9875    -0.0000
 31 H      0.9717     1.0000     0.0283     0.9892     0.9892    -0.0000
 32 H      0.9687     1.0000     0.0313     1.0134     1.0134    -0.0000
 33 H      0.9323     1.0000     0.0677     0.9925     0.9925    -0.0000

  Mayer bond orders larger than 0.100000
B(  0-S ,  1-C ) :   1.1178 B(  0-S ,  4-C ) :   1.1028 B(  1-C ,  2-C ) :   1.6417 
B(  1-C , 32-H ) :   0.9654 B(  2-C ,  3-C ) :   1.2206 B(  2-C ,  6-C ) :   1.0376 
B(  3-C ,  4-C ) :   1.6166 B(  3-C ,  5-H ) :   0.9754 B(  4-C , 20-C ) :   1.0468 
B(  6-C ,  7-H ) :   0.9340 B(  6-C ,  8-H ) :   0.9381 B(  6-C ,  9-C ) :   1.0572 
B(  9-C , 10-H ) :   0.9550 B(  9-C , 11-H ) :   0.9559 B(  9-C , 12-C ) :   1.0790 
B( 12-C , 13-H ) :   0.9748 B( 12-C , 14-H ) :   0.9736 B( 12-C , 15-H ) :   0.9737 
B( 16-S , 17-C ) :   1.1676 B( 16-S , 20-C ) :   1.1416 B( 17-C , 18-C ) :   1.5966 
B( 17-C , 33-H ) :   0.9627 B( 18-C , 19-C ) :   1.2509 B( 18-C , 21-H ) :   0.9897 
B( 19-C , 20-C ) :   1.5921 B( 19-C , 22-C ) :   1.0086 B( 22-C , 23-H ) :   0.9256 
B( 22-C , 24-H ) :   0.9422 B( 22-C , 25-C ) :   1.0565 B( 25-C , 26-H ) :   0.9543 
B( 25-C , 27-H ) :   0.9579 B( 25-C , 28-C ) :   1.0773 B( 28-C , 29-H ) :   0.9752 
B( 28-C , 30-H ) :   0.9752 B( 28-C , 31-H ) :   0.9736 

-------
TIMINGS
-------

Total SCF time: 0 days 0 hours 0 min 30 sec 

Total time                  ....      30.228 sec
Sum of individual times     ....      29.103 sec  ( 96.3%)

Fock matrix formation       ....      26.997 sec  ( 89.3%)
  XC integration            ....       1.922 sec  (  7.1% of F)
    Basis function eval.    ....       0.224 sec  ( 11.7% of XC)
    Density eval.           ....       0.168 sec  (  8.8% of XC)
    XC-Functional eval.     ....       0.204 sec  ( 10.6% of XC)
    XC-Potential eval.      ....       0.193 sec  ( 10.0% of XC)
Diagonalization             ....       0.163 sec  (  0.5%)
Density matrix formation    ....       0.025 sec  (  0.1%)
Population analysis         ....       0.103 sec  (  0.3%)
Initial guess               ....       0.202 sec  (  0.7%)
Orbital Transformation      ....       0.000 sec  (  0.0%)
Orbital Orthonormalization  ....       0.000 sec  (  0.0%)
DIIS solution               ....       0.159 sec  (  0.5%)
SOSCF solution              ....       0.158 sec  (  0.5%)
Grid generation             ....       1.295 sec  (  4.3%)


-------------------------------------------------------------------------------
                          DFT DISPERSION CORRECTION                            
                                                                               
                              DFTD3 V3.1  Rev 1                                
                              USING zero damping                               
-------------------------------------------------------------------------------
The omegaB97X-D3 functional is recognized. Fit by Chai et al.
Active option DFTDOPT                   ...         3   

molecular C6(AA) [au] = 14218.458659 


            DFT-D V3
 parameters
 s6 scaling factor         :     1.0000 
 rs6 scaling factor        :     1.2810 
 s8 scaling factor         :     1.0000 
 rs8 scaling factor        :     1.0940 
 Damping factor alpha6     :    14.0000 
 Damping factor alpha8     :    16.0000 
 ad hoc parameters k1-k3   :    16.0000     1.3333    -4.0000 

 Edisp/kcal,au: -8.497890986672  -0.013542249849 
 E6   /kcal   :  -3.811795211 
 E8   /kcal   :  -4.686095776 
 % E8         :  55.144220880 

-------------------------   ----------------
Dispersion correction           -0.013542250
-------------------------   ----------------


-------------------------   --------------------
FINAL SINGLE POINT ENERGY     -1339.862291876356
-------------------------   --------------------


                            ***************************************
                            *     ORCA property calculations      *
                            ***************************************

                                    ---------------------
                                    Active property flags
                                    ---------------------
   (+) Dipole Moment


------------------------------------------------------------------------------
                       ORCA ELECTRIC PROPERTIES CALCULATION
------------------------------------------------------------------------------

Dipole Moment Calculation                       ... on
Quadrupole Moment Calculation                   ... off
Polarizability Calculation                      ... off
GBWName                                         ... config_834.gbw
Electron density file                           ... config_834.scfp
The origin for moment calculation is the CENTER OF MASS  = (-6.817958, 140.906638 104.746929)

-------------
DIPOLE MOMENT
-------------
                                X             Y             Z
Electronic contribution:    -19.10183      16.67884      14.03113
Nuclear contribution   :     19.35269     -17.20958     -14.61222
                        -----------------------------------------
Total Dipole Moment    :      0.25086      -0.53073      -0.58109
                        -----------------------------------------
Magnitude (a.u.)       :      0.82600
Magnitude (Debye)      :      2.09953



--------------------
Rotational spectrum 
--------------------
 
Rotational constants in cm-1:     0.015648     0.008132     0.006518 
Rotational constants in MHz :   469.100337   243.792652   195.409801 

 Dipole components along the rotational axes: 
x,y,z [a.u.] :     0.091490    -0.678789     0.461685 
x,y,z [Debye]:     0.232550    -1.725343     1.173511 

 

Timings for individual modules:

Sum of individual times         ...       31.445 sec (=   0.524 min)
GTO integral calculation        ...        0.836 sec (=   0.014 min)   2.7 %
SCF iterations                  ...       30.609 sec (=   0.510 min)  97.3 %
                             ****ORCA TERMINATED NORMALLY****
TOTAL RUN TIME: 0 days 0 hours 0 minutes 32 seconds 333 msec
