
                                 *****************
                                 * O   R   C   A *
                                 *****************

           --- An Ab Initio, DFT and Semiempirical electronic structure package ---

                  #######################################################
                  #                        -***-                        #
                  #          Department of theory and spectroscopy      #
                  #               Directorship: Frank Neese             #
                  #        Max Planck Institute fuer Kohlenforschung    #
                  #                Kaiser Wilhelm Platz 1               #
                  #                 D-45470 Muelheim/Ruhr               #
                  #                      Germany                        #
                  #                                                     #
                  #                  All rights reserved                #
                  #                        -***-                        #
                  #######################################################


                         Program Version 4.2.1 -  RELEASE  -


 With contributions from (in alphabetic order):
   Daniel Aravena         : Magnetic Suceptibility
   Michael Atanasov       : Ab Initio Ligand Field Theory (pilot matlab implementation)
   Alexander A. Auer      : GIAO ZORA, VPT2
   Ute Becker             : Parallelization
   Giovanni Bistoni       : ED, misc. LED, open-shell LED, HFLD
   Martin Brehm           : Molecular dynamics
   Dmytro Bykov           : SCF Hessian
   Vijay G. Chilkuri      : MRCI spin determinant printing, contributions to CSF-ICE
   Dipayan Datta          : RHF DLPNO-CCSD density
   Achintya Kumar Dutta   : EOM-CC, STEOM-CC
   Dmitry Ganyushin       : Spin-Orbit,Spin-Spin,Magnetic field MRCI
   Miquel Garcia          : C-PCM Hessian, Gaussian charge scheme
   Yang Guo               : DLPNO-NEVPT2, CIM, IAO-localization
   Andreas Hansen         : Spin unrestricted coupled pair/coupled cluster methods
   Benjamin Helmich-Paris : CASSCF linear response (MC-RPA)
   Lee Huntington         : MR-EOM, pCC
   Robert Izsak           : Overlap fitted RIJCOSX, COSX-SCS-MP3, EOM
   Christian Kollmar      : KDIIS, OOCD, Brueckner-CCSD(T), CCSD density
   Simone Kossmann        : Meta GGA functionals, TD-DFT gradient, OOMP2, MP2 Hessian
   Martin Krupicka        : AUTO-CI
   Lucas Lang             : DCDCAS
   Dagmar Lenk            : GEPOL surface, SMD
   Dimitrios Liakos       : Extrapolation schemes; Compound Job, initial MDCI parallelization
   Dimitrios Manganas     : Further ROCIS development; embedding schemes
   Dimitrios Pantazis     : SARC Basis sets
   Taras Petrenko         : DFT Hessian,TD-DFT gradient, ASA, ECA, R-Raman, ABS, FL, XAS/XES, NRVS
   Peter Pinski           : DLPNO-MP2, DLPNO-MP2 Gradient
   Christoph Reimann      : Effective Core Potentials
   Marius Retegan         : Local ZFS, SOC
   Christoph Riplinger    : Optimizer, TS searches, QM/MM, DLPNO-CCSD(T), (RO)-DLPNO pert. Triples
   Tobias Risthaus        : Range-separated hybrids, TD-DFT gradient, RPA, STAB
   Michael Roemelt        : Original ROCIS implementation
   Masaaki Saitow         : Open-shell DLPNO-CCSD energy and density
   Barbara Sandhoefer     : DKH picture change effects
   Avijit Sen             : IP-ROCIS
   Kantharuban Sivalingam : CASSCF convergence, NEVPT2, FIC-MRCI
   Bernardo de Souza      : ESD, SOC TD-DFT
   Georgi Stoychev        : AutoAux, RI-MP2 NMR
   Willem Van den Heuvel  : Paramagnetic NMR
   Boris Wezisla          : Elementary symmetry handling
   Frank Wennmohs         : Technical directorship


 We gratefully acknowledge several colleagues who have allowed us to
 interface, adapt or use parts of their codes:
   Stefan Grimme, W. Hujo, H. Kruse,             : VdW corrections, initial TS optimization,
                  C. Bannwarth                     DFT functionals, gCP, sTDA/sTD-DF
   Ed Valeev, F. Pavosevic, A. Kumar             : LibInt (2-el integral package), F12 methods
   Garnet Chan, S. Sharma, J. Yang, R. Olivares  : DMRG
   Ulf Ekstrom                                   : XCFun DFT Library
   Mihaly Kallay                                 : mrcc  (arbitrary order and MRCC methods)
   Andreas Klamt, Michael Diedenhofen            : otool_cosmo (COSMO solvation model)
   Jiri Pittner, Ondrej Demel                    : Mk-CCSD
   Frank Weinhold                                : gennbo (NPA and NBO analysis)
   Christopher J. Cramer and Donald G. Truhlar   : smd solvation model
   Lars Goerigk                                  : TD-DFT with DH, B97 family of functionals
   V. Asgeirsson, H. Jonsson                     : NEB implementation
   FAccTs GmbH                                   : IRC, NEB, NEB-TS, Multilevel, MM, QM/MM, CI optimization
   S Lehtola, MJT Oliveira, MAL Marques          : LibXC Library


 Your calculation uses the libint2 library for the computation of 2-el integrals
 For citations please refer to: http://libint.valeyev.net

 Your ORCA version has been built with support for libXC version: 4.2.3
 For citations please refer to: https://tddft.org/programs/libxc/

 This ORCA versions uses:
   CBLAS   interface :  Fast vector & matrix operations
   LAPACKE interface :  Fast linear algebra routines
   SCALAPACK package :  Parallel linear algebra routines


Your calculation utilizes the atom-pairwise dispersion correction
with the zero-damping scheme (D30)
Cite in your paper:
S.Grimme, J.Antony, S.Ehrlich and H.Krieg, J.Chem.Phys., 132, (2010), 154104 
   

XCFun DFT library Copyright 2009-2010 Ulf Ekstrom and contributors.
See http://admol.org/xcfun for more information. This is free soft-
ware; see the source code for copying conditions. There is ABSOLUTELY
NO WARRANTY; not even for MERCHANTABILITY or FITNESS FOR A PARTICULAR
PURPOSE. For details see the documentation. Scientific users of this 
library should cite U. Ekstrom, L. Visscher, R. Bast, A. J. Thorvald-
sen and K. Ruud; J.Chem.Theor.Comp. 2010, DOI: 10.1021/ct100117s
XCFun Version 0.99 
----- Orbital basis set information -----
Your calculation utilizes the basis: def2-SVP
   F. Weigend and R. Ahlrichs, Phys. Chem. Chem. Phys. 7, 3297 (2005).

================================================================================
                                        WARNINGS
                       Please study these warnings very carefully!
================================================================================


INFO   : the flag for use of LIBINT has been found!

================================================================================
                                       INPUT FILE
================================================================================
NAME = config_4088.inp
|  1> ! wB97X-D3 SP def2-SVP
|  2> %pal
|  3> nprocs 16
|  4> end
|  5> 
|  6> * xyz 0 1
|  7> S 	 -3.04156 	 -22.2814 	 58.4195 	 
|  8> C 	 -1.70456 	 -21.4348 	 59.0698 	 
|  9> C 	 -0.862915 	 -22.3029 	 59.7546 	 
| 10> C 	 -1.42804 	 -23.62 	 59.8935 	 
| 11> C 	 -2.45293 	 -23.7487 	 58.9572 	 
| 12> H 	 -1.10765 	 -24.4996 	 60.487 	 
| 13> C 	 0.342815 	 -21.8729 	 60.6719 	 
| 14> H 	 0.178737 	 -22.2938 	 61.654 	 
| 15> H 	 0.365792 	 -20.8186 	 60.8866 	 
| 16> C 	 1.75476 	 -22.4485 	 60.2922 	 
| 17> H 	 2.4373 	 -22.0936 	 61.0599 	 
| 18> H 	 1.66306 	 -23.4918 	 60.469 	 
| 19> C 	 2.25242 	 -22.1053 	 58.8206 	 
| 20> H 	 3.29776 	 -22.3721 	 58.9161 	 
| 21> H 	 1.8273 	 -22.8313 	 58.085 	 
| 22> H 	 2.09397 	 -21.0014 	 58.6145 	 
| 23> S 	 -4.66857 	 -25.2386 	 59.7212 	 
| 24> C 	 -4.92381 	 -26.8168 	 58.9838 	 
| 25> C 	 -4.00489 	 -27.1005 	 57.9822 	 
| 26> C 	 -3.02833 	 -26.0864 	 57.78 	 
| 27> C 	 -3.16153 	 -25.0173 	 58.6977 	 
| 28> H 	 -4.17323 	 -27.9642 	 57.3105 	 
| 29> C 	 -2.07884 	 -26.1002 	 56.6608 	 
| 30> H 	 -2.1111 	 -27.0448 	 56.1616 	 
| 31> H 	 -1.04994 	 -26.1631 	 57.0074 	 
| 32> C 	 -2.17098 	 -24.9172 	 55.5702 	 
| 33> H 	 -1.76986 	 -23.9694 	 55.8529 	 
| 34> H 	 -3.21314 	 -24.6189 	 55.3385 	 
| 35> C 	 -1.4241 	 -25.3108 	 54.3019 	 
| 36> H 	 -1.7425 	 -26.1988 	 53.7862 	 
| 37> H 	 -0.331195 	 -25.4789 	 54.5386 	 
| 38> H 	 -1.51755 	 -24.5331 	 53.5325 	 
| 39> H 	 -1.52561 	 -20.3898 	 58.9125 	 
| 40> H 	 -5.6051 	 -27.5883 	 59.3107 	 
| 41> *
| 42> 
| 43>                          ****END OF INPUT****
================================================================================

                       ****************************
                       * Single Point Calculation *
                       ****************************

---------------------------------
CARTESIAN COORDINATES (ANGSTROEM)
---------------------------------
  S     -3.041560  -22.281400   58.419500
  C     -1.704560  -21.434800   59.069800
  C     -0.862915  -22.302900   59.754600
  C     -1.428040  -23.620000   59.893500
  C     -2.452930  -23.748700   58.957200
  H     -1.107650  -24.499600   60.487000
  C      0.342815  -21.872900   60.671900
  H      0.178737  -22.293800   61.654000
  H      0.365792  -20.818600   60.886600
  C      1.754760  -22.448500   60.292200
  H      2.437300  -22.093600   61.059900
  H      1.663060  -23.491800   60.469000
  C      2.252420  -22.105300   58.820600
  H      3.297760  -22.372100   58.916100
  H      1.827300  -22.831300   58.085000
  H      2.093970  -21.001400   58.614500
  S     -4.668570  -25.238600   59.721200
  C     -4.923810  -26.816800   58.983800
  C     -4.004890  -27.100500   57.982200
  C     -3.028330  -26.086400   57.780000
  C     -3.161530  -25.017300   58.697700
  H     -4.173230  -27.964200   57.310500
  C     -2.078840  -26.100200   56.660800
  H     -2.111100  -27.044800   56.161600
  H     -1.049940  -26.163100   57.007400
  C     -2.170980  -24.917200   55.570200
  H     -1.769860  -23.969400   55.852900
  H     -3.213140  -24.618900   55.338500
  C     -1.424100  -25.310800   54.301900
  H     -1.742500  -26.198800   53.786200
  H     -0.331195  -25.478900   54.538600
  H     -1.517550  -24.533100   53.532500
  H     -1.525610  -20.389800   58.912500
  H     -5.605100  -27.588300   59.310700

----------------------------
CARTESIAN COORDINATES (A.U.)
----------------------------
  NO LB      ZA    FRAG     MASS         X           Y           Z
   0 S    16.0000    0    32.060   -5.747715  -42.105744  110.396856
   1 C     6.0000    0    12.011   -3.221152  -40.505902  111.625745
   2 C     6.0000    0    12.011   -1.630673  -42.146373  112.919829
   3 C     6.0000    0    12.011   -2.698605  -44.635331  113.182312
   4 C     6.0000    0    12.011   -4.635366  -44.878539  111.412962
   5 H     1.0000    0     1.008   -2.093155  -46.297534  114.303865
   6 C     6.0000    0    12.011    0.647826  -41.333791  114.653275
   7 H     1.0000    0     1.008    0.337764  -42.129176  116.509175
   8 H     1.0000    0     1.008    0.691247  -39.341452  115.058999
   9 C     6.0000    0    12.011    3.316016  -42.421517  113.935746
  10 H     1.0000    0     1.008    4.605830  -41.750853  115.386489
  11 H     1.0000    0     1.008    3.142728  -44.393068  114.269850
  12 C     6.0000    0    12.011    4.256457  -41.772963  111.154825
  13 H     1.0000    0     1.008    6.231863  -42.277142  111.335294
  14 H     1.0000    0     1.008    3.453097  -43.144904  109.764742
  15 H     1.0000    0     1.008    3.957030  -39.686894  110.765352
  16 S    16.0000    0    32.060   -8.822319  -47.694042  112.856712
  17 C     6.0000    0    12.011   -9.304652  -50.676408  111.463228
  18 C     6.0000    0    12.011   -7.568145  -51.212523  109.570479
  19 C     6.0000    0    12.011   -5.722714  -49.296152  109.188376
  20 C     6.0000    0    12.011   -5.974426  -47.275846  110.922578
  21 H     1.0000    0     1.008   -7.886262  -52.844680  108.301150
  22 C     6.0000    0    12.011   -3.928438  -49.322230  107.073395
  23 H     1.0000    0     1.008   -3.989401  -51.107265  106.130043
  24 H     1.0000    0     1.008   -1.984099  -49.441094  107.728374
  25 C     6.0000    0    12.011   -4.102558  -47.086684  105.012459
  26 H     1.0000    0     1.008   -3.344551  -45.295602  105.546685
  27 H     1.0000    0     1.008   -6.071955  -46.522979  104.574610
  28 C     6.0000    0    12.011   -2.691159  -47.830480  102.615720
  29 H     1.0000    0     1.008   -3.292848  -49.508557  101.641188
  30 H     1.0000    0     1.008   -0.625868  -48.148143  103.063018
  31 H     1.0000    0     1.008   -2.867754  -46.360840  101.161764
  32 H     1.0000    0     1.008   -2.882985  -38.531138  111.328491
  33 H     1.0000    0     1.008  -10.592104  -52.134332  112.080980

--------------------------------
INTERNAL COORDINATES (ANGSTROEM)
--------------------------------
 S      0   0   0     0.000000000000     0.00000000     0.00000000
 C      1   0   0     1.710903460164     0.00000000     0.00000000
 C      2   1   0     1.389573659805   110.57924301     0.00000000
 C      3   2   1     1.439934681027   112.41166681   351.81499983
 C      4   3   2     1.394138046285   107.94923075    18.07782841
 H      4   3   2     1.108416962203   131.61151234   189.59439540
 C      3   2   1     1.574840983369   125.46446987   190.02433152
 H      7   3   2     1.081017488334   107.85778494   122.90160312
 H      7   3   2     1.076184241907   113.58075123    10.94958243
 C      7   3   2     1.571329415821   116.56364222   237.20777295
 H     10   7   3     1.086820202057   105.90272995   183.16718318
 H     10   7   3     1.062140301467   104.00552732   293.46526494
 C     10   7   3     1.590930003363   115.18718597    57.85081338
 H     13  10   7     1.083068883128    99.62574330   165.82940388
 H     13  10   7     1.117546587127   110.47018745   276.34041039
 H     13  10   7     1.134098241997   109.53446656    47.10476481
 S      5   4   3     2.777149369335   116.82534091   215.48213552
 C     17   5   4     1.760574184066   118.77367240   251.09741801
 C     18  17   5     1.388561203693   112.91252669   354.92339587
 C     19  18  17     1.422305552123   114.28345401     1.66997837
 C     20  19  18     1.415235082946   112.44564266     2.90727936
 H     19  18  17     1.107021650917   119.76492543   191.93749730
 C     20  19  18     1.467763720801   123.08344098   188.39466840
 H     23  20  19     1.068882831558   110.17597134   349.26230903
 H     23  20  19     1.087530771978   111.68762508   242.34892245
 C     23  20  19     1.611641132386   118.17156697   115.89779580
 H     26  23  20     1.067305665871   116.81548580    76.76058369
 H     26  23  20     1.108496840591   113.12425700   321.75867267
 C     26  23  20     1.523592985151   110.22205672   196.98802860
 H     29  26  23     1.075113505636   117.87178084    59.07058347
 H     29  26  23     1.130807604779   109.75116326   298.60525643
 H     29  26  23     1.097964731902   111.01596162   177.38179689
 H      2   1   3     1.071816865187   123.85791800   176.68384238
 H     18  17   5     1.079922184280   127.23419422   166.50754761

---------------------------
INTERNAL COORDINATES (A.U.)
---------------------------
 S      0   0   0     0.000000000000     0.00000000     0.00000000
 C      1   0   0     3.233138981288     0.00000000     0.00000000
 C      2   1   0     2.625913659943   110.57924301     0.00000000
 C      3   2   1     2.721082197877   112.41166681   351.81499983
 C      4   3   2     2.634539100359   107.94923075    18.07782841
 H      4   3   2     2.094604500757   131.61151234   189.59439540
 C      3   2   1     2.976018163043   125.46446987   190.02433152
 H      7   3   2     2.042826998931   107.85778494   122.90160312
 H      7   3   2     2.033693486846   113.58075123    10.94958243
 C      7   3   2     2.969382262077   116.56364222   237.20777295
 H     10   7   3     2.053792538701   105.90272995   183.16718318
 H     10   7   3     2.007154285573   104.00552732   293.46526494
 C     10   7   3     3.006422004594   115.18718597    57.85081338
 H     13  10   7     2.046703573284    99.62574330   165.82940388
 H     13  10   7     2.111856991569   110.47018745   276.34041039
 H     13  10   7     2.143135086335   109.53446656    47.10476481
 S      5   4   3     5.248051741036   116.82534091   215.48213552
 C     17   5   4     3.327003046337   118.77367240   251.09741801
 C     18  17   5     2.624000395167   112.91252669   354.92339587
 C     19  18  17     2.687767972268   114.28345401     1.66997837
 C     20  19  18     2.674406721884   112.44564266     2.90727936
 H     19  18  17     2.091967744555   119.76492543   191.93749730
 C     20  19  18     2.773671461619   123.08344098   188.39466840
 H     23  20  19     2.019895820895   110.17597134   349.26230903
 H     23  20  19     2.055135321251   111.68762508   242.34892245
 C     23  20  19     3.045560366373   118.17156697   115.89779580
 H     26  23  20     2.016915409678   116.81548580    76.76058369
 H     26  23  20     2.094755449034   113.12425700   321.75867267
 C     26  23  20     2.879173481498   110.22205672   196.98802860
 H     29  26  23     2.031670088531   117.87178084    59.07058347
 H     29  26  23     2.136916683187   109.75116326   298.60525643
 H     29  26  23     2.074852647999   111.01596162   177.38179689
 H      2   1   3     2.025440340922   123.85791800   176.68384238
 H     18  17   5     2.040757174235   127.23419422   166.50754761

---------------------
BASIS SET INFORMATION
---------------------
There are 3 groups of distinct atoms

 Group   1 Type S   : 10s7p1d contracted to 4s3p1d pattern {5311/511/1}
 Group   2 Type C   : 7s4p1d contracted to 3s2p1d pattern {511/31/1}
 Group   3 Type H   : 4s1p contracted to 2s1p pattern {31/1}

Atom   0S    basis set group =>   1
Atom   1C    basis set group =>   2
Atom   2C    basis set group =>   2
Atom   3C    basis set group =>   2
Atom   4C    basis set group =>   2
Atom   5H    basis set group =>   3
Atom   6C    basis set group =>   2
Atom   7H    basis set group =>   3
Atom   8H    basis set group =>   3
Atom   9C    basis set group =>   2
Atom  10H    basis set group =>   3
Atom  11H    basis set group =>   3
Atom  12C    basis set group =>   2
Atom  13H    basis set group =>   3
Atom  14H    basis set group =>   3
Atom  15H    basis set group =>   3
Atom  16S    basis set group =>   1
Atom  17C    basis set group =>   2
Atom  18C    basis set group =>   2
Atom  19C    basis set group =>   2
Atom  20C    basis set group =>   2
Atom  21H    basis set group =>   3
Atom  22C    basis set group =>   2
Atom  23H    basis set group =>   3
Atom  24H    basis set group =>   3
Atom  25C    basis set group =>   2
Atom  26H    basis set group =>   3
Atom  27H    basis set group =>   3
Atom  28C    basis set group =>   2
Atom  29H    basis set group =>   3
Atom  30H    basis set group =>   3
Atom  31H    basis set group =>   3
Atom  32H    basis set group =>   3
Atom  33H    basis set group =>   3


           ************************************************************
           *        Program running with 16 parallel MPI-processes    *
           *              working on a common directory               *
           ************************************************************
------------------------------------------------------------------------------
                           ORCA GTO INTEGRAL CALCULATION
------------------------------------------------------------------------------

                         BASIS SET STATISTICS AND STARTUP INFO

 # of primitive gaussian shells          ...  294
 # of primitive gaussian functions       ...  534
 # of contracted shells                  ...  154
 # of contracted basis functions         ...  322
 Highest angular momentum                ...    2
 Maximum contraction depth               ...    5
 Integral package used                   ... LIBINT
 Integral threshhold            Thresh   ...  1.000e-10
 Primitive cut-off              TCut     ...  1.000e-11


------------------------------ INTEGRAL EVALUATION ----------------------------


 * One electron integrals 
 Pre-screening matrix                    ... done
 Shell pair data                         ... done (   0.003 sec)



           ************************************************************
           *        Program running with 16 parallel MPI-processes    *
           *              working on a common directory               *
           ************************************************************
-------------------------------------------------------------------------------
                                 ORCA SCF
-------------------------------------------------------------------------------

------------
SCF SETTINGS
------------
Hamiltonian:
 Density Functional     Method          .... DFT(GTOs)
 Exchange Functional    Exchange        .... WB97X-D3
 Correlation Functional Correlation     .... WB97X-D3
 Gradients option       PostSCFGGA      .... off
 Hybrid DFT is turned on
   Fraction HF Exchange ScalHFX         ....  0.195728
   Scaling of DF-GGA-X  ScalDFX         ....  0.000000
   Scaling of DF-GGA-C  ScalDFC         ....  1.000000
   Scaling of DF-LDA-C  ScalLDAC        ....  1.000000
   Perturbative correction              ....  0.000000
   Density functional embedding theory  .... OFF
 Long-range corrected/Screened/Range-Separated Hybrid DFT is turned on
   Amount of maximum screened exact exchange              ....  0.804272
   Range separation parameter mu (erf(mu*r12)/r12)        ....  0.250000


General Settings:
 Integral files         IntName         .... config_4088
 Hartree-Fock type      HFTyp           .... RHF
 Total Charge           Charge          ....    0
 Multiplicity           Mult            ....    1
 Number of Electrons    NEL             ....  134
 Basis Dimension        Dim             ....  322
 Nuclear Repulsion      ENuc            ....   1284.8262808358 Eh

Convergence Acceleration:
 DIIS                   CNVDIIS         .... on
   Start iteration      DIISMaxIt       ....    12
   Startup error        DIISStart       ....  0.200000
   # of expansion vecs  DIISMaxEq       ....     5
   Bias factor          DIISBfac        ....   1.050
   Max. coefficient     DIISMaxC        ....  10.000
 Newton-Raphson         CNVNR           .... off
 SOSCF                  CNVSOSCF        .... on
   Start iteration      SOSCFMaxIt      ....   150
   Startup grad/error   SOSCFStart      ....  0.003300
 Level Shifting         CNVShift        .... on
   Level shift para.    LevelShift      ....    0.2500
   Turn off err/grad.   ShiftErr        ....    0.0010
 Zerner damping         CNVZerner       .... off
 Static damping         CNVDamp         .... on
   Fraction old density DampFac         ....    0.7000
   Max. Damping (<1)    DampMax         ....    0.9800
   Min. Damping (>=0)   DampMin         ....    0.0000
   Turn off err/grad.   DampErr         ....    0.1000
 Fernandez-Rico         CNVRico         .... off

SCF Procedure:
 Maximum # iterations   MaxIter         ....   125
 SCF integral mode      SCFMode         .... Direct
   Integral package                     .... LIBINT
 Reset frequency        DirectResetFreq ....    20
 Integral Threshold     Thresh          ....  1.000e-10 Eh
 Primitive CutOff       TCut            ....  1.000e-11 Eh

Convergence Tolerance:
 Convergence Check Mode ConvCheckMode   .... Total+1el-Energy
 Convergence forced     ConvForced      .... 0
 Energy Change          TolE            ....  1.000e-06 Eh
 1-El. energy change                    ....  1.000e-03 Eh
 Orbital Gradient       TolG            ....  5.000e-05
 Orbital Rotation angle TolX            ....  5.000e-05
 DIIS Error             TolErr          ....  1.000e-06


Diagonalization of the overlap matrix:
Smallest eigenvalue                        ... 6.227e-04
Time for diagonalization                   ...    0.016 sec
Threshold for overlap eigenvalues          ... 1.000e-08
Number of eigenvalues below threshold      ... 0
Time for construction of square roots      ...    0.031 sec
Total time needed                          ...    0.047 sec

-------------------
DFT GRID GENERATION
-------------------

General Integration Accuracy     IntAcc      ...  4.340
Radial Grid Type                 RadialGrid  ... Gauss-Chebyshev
Angular Grid (max. acc.)         AngularGrid ... Lebedev-110
Angular grid pruning method      GridPruning ... 3 (G Style)
Weight generation scheme         WeightScheme... Becke
Basis function cutoff            BFCut       ...    1.0000e-10
Integration weight cutoff        WCut        ...    1.0000e-14
Grids for H and He will be reduced by one unit

# of grid points (after initial pruning)     ...  41088 (   0.0 sec)
# of grid points (after weights+screening)   ...  37011 (   0.0 sec)
nearest neighbour list constructed           ...    0.0 sec
Grid point re-assignment to atoms done       ...    0.0 sec
Grid point division into batches done        ...    0.0 sec
Reduced shell lists constructed in    0.1 sec

Total number of grid points                  ...    37011
Total number of batches                      ...      594
Average number of points per batch           ...       62
Average number of grid points per atom       ...     1089
Average number of shells per batch           ...    81.82 (53.13%)
Average number of basis functions per batch  ...   161.51 (50.16%)
Average number of large shells per batch     ...    53.67 (65.59%)
Average number of large basis fcns per batch ...   109.26 (67.65%)
Maximum spatial batch extension              ...  14.32, 12.66, 18.62 au
Average spatial batch extension              ...   0.20,  0.17,  0.21 au

Time for grid setup =    0.199 sec

------------------------------
INITIAL GUESS: MODEL POTENTIAL
------------------------------
Loading Hartree-Fock densities                     ... done
Calculating cut-offs                               ... done
Setting up the integral package                    ... done
Initializing the effective Hamiltonian             ... done
Starting the Coulomb interaction                   ... done (   0.0 sec)
Reading the grid                                   ... done
Mapping shells                                     ... done
Starting the XC term evaluation                    ... done (   0.0 sec)
  promolecular density results
     # of electrons  =    133.995462195
     EX              =   -126.662238104
     EC              =     -4.605076793
     EX+EC           =   -131.267314897
Transforming the Hamiltonian                       ... done (   0.0 sec)
Diagonalizing the Hamiltonian                      ... done (   0.0 sec)
Back transforming the eigenvectors                 ... done (   0.0 sec)
Now organizing SCF variables                       ... done
                      ------------------
                      INITIAL GUESS DONE (   0.4 sec)
                      ------------------
--------------
SCF ITERATIONS
--------------
ITER       Energy         Delta-E        Max-DP      RMS-DP      [F,P]     Damp
               ***  Starting incremental Fock matrix formation  ***
  0  -1339.4233686843   0.000000000000 0.06430533  0.00153288  0.1570026 0.7000
  1  -1339.6023224609  -0.178953776544 0.04300808  0.00111976  0.0942569 0.7000
                               ***Turning on DIIS***
  2  -1339.6898086034  -0.087486142555 0.08870482  0.00211650  0.0482293 0.0000
  3  -1339.8226484605  -0.132839857035 0.04511301  0.00095552  0.0370336 0.0000
  4  -1339.8505682255  -0.027919765075 0.00693773  0.00019582  0.0072590 0.0000
                      *** Initiating the SOSCF procedure ***
                           *** Shutting down DIIS ***
                      *** Re-Reading the Fockian *** 
                      *** Removing any level shift *** 
ITER      Energy       Delta-E        Grad      Rot      Max-DP    RMS-DP
  5  -1339.85142030  -0.0008520755  0.001389  0.001389  0.003513  0.000102
               *** Restarting incremental Fock matrix formation ***
  6  -1339.85159832  -0.0001780148  0.001243  0.003376  0.002237  0.000064
  7  -1339.85165952  -0.0000612054  0.000682  0.004280  0.002846  0.000067
  8  -1339.85167662  -0.0000171008  0.000335  0.000440  0.000887  0.000021
  9  -1339.85168125  -0.0000046276  0.000143  0.000354  0.000321  0.000009
 10  -1339.85168181  -0.0000005576  0.000051  0.000204  0.000152  0.000004
                  ***Gradient check signals convergence***
              ***Rediagonalizing the Fockian in SOSCF/NRSCF***

               *****************************************************
               *                     SUCCESS                       *
               *           SCF CONVERGED AFTER  11 CYCLES          *
               *****************************************************

Setting up the final grid:

General Integration Accuracy     IntAcc      ...  4.670
Radial Grid Type                 RadialGrid  ... Gauss-Chebyshev
Angular Grid (max. acc.)         AngularGrid ... Lebedev-302
Angular grid pruning method      GridPruning ... 3 (G Style)
Weight generation scheme         WeightScheme... Becke
Basis function cutoff            BFCut       ...    1.0000e-10
Integration weight cutoff        WCut        ...    1.0000e-14
Grids for H and He will be reduced by one unit

# of grid points (after initial pruning)     ... 161752 (   0.0 sec)
# of grid points (after weights+screening)   ... 142966 (   0.2 sec)
nearest neighbour list constructed           ...    0.0 sec
Grid point re-assignment to atoms done       ...    0.0 sec
Grid point division into batches done        ...    0.5 sec
Reduced shell lists constructed in    0.7 sec

Total number of grid points                  ...   142966
Total number of batches                      ...     2251
Average number of points per batch           ...       63
Average number of grid points per atom       ...     4205
Average number of shells per batch           ...    76.51 (49.68%)
Average number of basis functions per batch  ...   149.41 (46.40%)
Average number of large shells per batch     ...    48.11 (62.89%)
Average number of large basis fcns per batch ...    97.48 (65.24%)
Maximum spatial batch extension              ...  15.37, 12.31, 12.84 au
Average spatial batch extension              ...   0.12,  0.12,  0.12 au

Final grid set up in    1.1 sec
Final integration                            ... done (   0.4 sec)
Change in XC energy                          ...     0.006957508
Integrated number of electrons               ...   133.999765484
Previous integrated no of electrons          ...   134.001808511

----------------
TOTAL SCF ENERGY
----------------

Total Energy       :        -1339.84472455 Eh          -36459.02850 eV

Components:
Nuclear Repulsion  :         1284.82628084 Eh           34961.90053 eV
Electronic Energy  :        -2624.67100539 Eh          -71420.92903 eV
One Electron Energy:        -4386.55378353 Eh         -119364.19681 eV
Two Electron Energy:         1761.88277815 Eh           47943.26778 eV

Virial components:
Potential Energy   :        -2671.02150581 Eh          -72682.19026 eV
Kinetic Energy     :         1331.17678126 Eh           36223.16177 eV
Virial Ratio       :            2.00651149


DFT components:
N(Alpha)           :       66.999882741821 electrons
N(Beta)            :       66.999882741821 electrons
N(Total)           :      133.999765483643 electrons
E(XC)              :      -94.182332096909 Eh       
DFET-embed. en.    :        0.000000000000 Eh       

---------------
SCF CONVERGENCE
---------------

  Last Energy change         ...   -2.5120e-07  Tolerance :   1.0000e-06
  Last MAX-Density change    ...    3.2852e-05  Tolerance :   1.0000e-05
  Last RMS-Density change    ...    7.7880e-07  Tolerance :   1.0000e-06
  Last Orbital Gradient      ...    8.6667e-06  Tolerance :   5.0000e-05
  Last Orbital Rotation      ...    3.6421e-05  Tolerance :   5.0000e-05

             **** THE GBW FILE WAS UPDATED (config_4088.gbw) ****
             **** DENSITY FILE WAS UPDATED (config_4088.scfp) ****
             **** ENERGY FILE WAS UPDATED (config_4088.en.tmp) ****
             **** THE GBW FILE WAS UPDATED (config_4088.gbw) ****
             **** DENSITY FILE WAS UPDATED (config_4088.scfp) ****
----------------
ORBITAL ENERGIES
----------------

  NO   OCC          E(Eh)            E(eV) 
   0   2.0000     -88.967014     -2420.9155 
   1   2.0000     -88.964496     -2420.8470 
   2   2.0000     -10.330949      -281.1194 
   3   2.0000     -10.323146      -280.9071 
   4   2.0000     -10.317548      -280.7547 
   5   2.0000     -10.310589      -280.5654 
   6   2.0000     -10.306128      -280.4440 
   7   2.0000     -10.306049      -280.4419 
   8   2.0000     -10.297533      -280.2101 
   9   2.0000     -10.294035      -280.1149 
  10   2.0000     -10.290463      -280.0177 
  11   2.0000     -10.290071      -280.0071 
  12   2.0000     -10.287788      -279.9449 
  13   2.0000     -10.286442      -279.9083 
  14   2.0000     -10.285847      -279.8921 
  15   2.0000     -10.277933      -279.6768 
  16   2.0000      -8.083770      -219.9706 
  17   2.0000      -8.077821      -219.8087 
  18   2.0000      -6.042014      -164.4116 
  19   2.0000      -6.037926      -164.3003 
  20   2.0000      -6.036338      -164.2571 
  21   2.0000      -6.034740      -164.2136 
  22   2.0000      -6.032553      -164.1541 
  23   2.0000      -6.028641      -164.0477 
  24   2.0000      -1.012151       -27.5420 
  25   2.0000      -0.977686       -26.6042 
  26   2.0000      -0.901120       -24.5207 
  27   2.0000      -0.898969       -24.4622 
  28   2.0000      -0.862720       -23.4758 
  29   2.0000      -0.850834       -23.1524 
  30   2.0000      -0.845465       -23.0063 
  31   2.0000      -0.807219       -21.9655 
  32   2.0000      -0.781790       -21.2736 
  33   2.0000      -0.768276       -20.9058 
  34   2.0000      -0.708712       -19.2850 
  35   2.0000      -0.695821       -18.9343 
  36   2.0000      -0.688642       -18.7389 
  37   2.0000      -0.655848       -17.8465 
  38   2.0000      -0.645307       -17.5597 
  39   2.0000      -0.612087       -16.6557 
  40   2.0000      -0.595089       -16.1932 
  41   2.0000      -0.562200       -15.2982 
  42   2.0000      -0.550095       -14.9688 
  43   2.0000      -0.542855       -14.7718 
  44   2.0000      -0.535393       -14.5688 
  45   2.0000      -0.523368       -14.2416 
  46   2.0000      -0.517079       -14.0704 
  47   2.0000      -0.510515       -13.8918 
  48   2.0000      -0.501096       -13.6355 
  49   2.0000      -0.495996       -13.4967 
  50   2.0000      -0.487201       -13.2574 
  51   2.0000      -0.481978       -13.1153 
  52   2.0000      -0.468423       -12.7464 
  53   2.0000      -0.459955       -12.5160 
  54   2.0000      -0.454594       -12.3701 
  55   2.0000      -0.451310       -12.2808 
  56   2.0000      -0.443982       -12.0814 
  57   2.0000      -0.433141       -11.7864 
  58   2.0000      -0.430455       -11.7133 
  59   2.0000      -0.425617       -11.5816 
  60   2.0000      -0.418578       -11.3901 
  61   2.0000      -0.414481       -11.2786 
  62   2.0000      -0.411147       -11.1879 
  63   2.0000      -0.334447        -9.1008 
  64   2.0000      -0.326331        -8.8799 
  65   2.0000      -0.318009        -8.6535 
  66   2.0000      -0.304863        -8.2957 
  67   0.0000       0.041619         1.1325 
  68   0.0000       0.048633         1.3234 
  69   0.0000       0.108872         2.9626 
  70   0.0000       0.113635         3.0922 
  71   0.0000       0.131760         3.5854 
  72   0.0000       0.143314         3.8998 
  73   0.0000       0.148585         4.0432 
  74   0.0000       0.155785         4.2391 
  75   0.0000       0.167959         4.5704 
  76   0.0000       0.172873         4.7041 
  77   0.0000       0.179188         4.8759 
  78   0.0000       0.185215         5.0399 
  79   0.0000       0.193345         5.2612 
  80   0.0000       0.197298         5.3688 
  81   0.0000       0.202172         5.5014 
  82   0.0000       0.212053         5.7703 
  83   0.0000       0.215753         5.8709 
  84   0.0000       0.225660         6.1405 
  85   0.0000       0.229002         6.2315 
  86   0.0000       0.236818         6.4441 
  87   0.0000       0.240192         6.5360 
  88   0.0000       0.243082         6.6146 
  89   0.0000       0.248280         6.7560 
  90   0.0000       0.251929         6.8553 
  91   0.0000       0.256728         6.9859 
  92   0.0000       0.268142         7.2965 
  93   0.0000       0.286032         7.7833 
  94   0.0000       0.301864         8.2141 
  95   0.0000       0.310340         8.4448 
  96   0.0000       0.327320         8.9068 
  97   0.0000       0.335241         9.1224 
  98   0.0000       0.344029         9.3615 
  99   0.0000       0.351945         9.5769 
 100   0.0000       0.382787        10.4162 
 101   0.0000       0.385374        10.4866 
 102   0.0000       0.401738        10.9318 
 103   0.0000       0.424525        11.5519 
 104   0.0000       0.441024        12.0009 
 105   0.0000       0.446430        12.1480 
 106   0.0000       0.461147        12.5484 
 107   0.0000       0.474981        12.9249 
 108   0.0000       0.485085        13.1998 
 109   0.0000       0.489892        13.3306 
 110   0.0000       0.491406        13.3718 
 111   0.0000       0.508027        13.8241 
 112   0.0000       0.515179        14.0187 
 113   0.0000       0.520346        14.1593 
 114   0.0000       0.531133        14.4529 
 115   0.0000       0.537175        14.6173 
 116   0.0000       0.546607        14.8739 
 117   0.0000       0.548886        14.9359 
 118   0.0000       0.562336        15.3019 
 119   0.0000       0.566745        15.4219 
 120   0.0000       0.579432        15.7672 
 121   0.0000       0.592802        16.1310 
 122   0.0000       0.599214        16.3054 
 123   0.0000       0.614466        16.7205 
 124   0.0000       0.621539        16.9129 
 125   0.0000       0.628254        17.0956 
 126   0.0000       0.637217        17.3396 
 127   0.0000       0.643734        17.5169 
 128   0.0000       0.649533        17.6747 
 129   0.0000       0.660407        17.9706 
 130   0.0000       0.665998        18.1227 
 131   0.0000       0.675977        18.3943 
 132   0.0000       0.677613        18.4388 
 133   0.0000       0.683688        18.6041 
 134   0.0000       0.691976        18.8296 
 135   0.0000       0.706086        19.2136 
 136   0.0000       0.708687        19.2843 
 137   0.0000       0.716492        19.4967 
 138   0.0000       0.731011        19.8918 
 139   0.0000       0.739001        20.1092 
 140   0.0000       0.742223        20.1969 
 141   0.0000       0.743290        20.2260 
 142   0.0000       0.747136        20.3306 
 143   0.0000       0.755660        20.5626 
 144   0.0000       0.756200        20.5773 
 145   0.0000       0.762005        20.7352 
 146   0.0000       0.771479        20.9930 
 147   0.0000       0.777704        21.1624 
 148   0.0000       0.778294        21.1785 
 149   0.0000       0.780145        21.2288 
 150   0.0000       0.785117        21.3641 
 151   0.0000       0.790394        21.5077 
 152   0.0000       0.792394        21.5621 
 153   0.0000       0.796991        21.6872 
 154   0.0000       0.797452        21.6998 
 155   0.0000       0.801972        21.8228 
 156   0.0000       0.807213        21.9654 
 157   0.0000       0.809616        22.0308 
 158   0.0000       0.814833        22.1727 
 159   0.0000       0.819828        22.3087 
 160   0.0000       0.824597        22.4384 
 161   0.0000       0.827910        22.5286 
 162   0.0000       0.833476        22.6800 
 163   0.0000       0.838466        22.8158 
 164   0.0000       0.846786        23.0422 
 165   0.0000       0.851503        23.1706 
 166   0.0000       0.858334        23.3564 
 167   0.0000       0.871177        23.7059 
 168   0.0000       0.881762        23.9940 
 169   0.0000       0.887267        24.1438 
 170   0.0000       0.899989        24.4899 
 171   0.0000       0.919967        25.0336 
 172   0.0000       0.924981        25.1700 
 173   0.0000       0.939157        25.5557 
 174   0.0000       0.965980        26.2857 
 175   0.0000       0.969885        26.3919 
 176   0.0000       0.981175        26.6991 
 177   0.0000       0.988579        26.9006 
 178   0.0000       1.019291        27.7363 
 179   0.0000       1.032184        28.0872 
 180   0.0000       1.039707        28.2919 
 181   0.0000       1.051418        28.6105 
 182   0.0000       1.075620        29.2691 
 183   0.0000       1.093859        29.7654 
 184   0.0000       1.122658        30.5491 
 185   0.0000       1.131619        30.7929 
 186   0.0000       1.139745        31.0140 
 187   0.0000       1.150813        31.3152 
 188   0.0000       1.171989        31.8914 
 189   0.0000       1.184729        32.2381 
 190   0.0000       1.206525        32.8312 
 191   0.0000       1.219091        33.1732 
 192   0.0000       1.238810        33.7097 
 193   0.0000       1.248355        33.9695 
 194   0.0000       1.271176        34.5905 
 195   0.0000       1.298646        35.3379 
 196   0.0000       1.300939        35.4004 
 197   0.0000       1.315579        35.7987 
 198   0.0000       1.342347        36.5271 
 199   0.0000       1.364283        37.1240 
 200   0.0000       1.380209        37.5574 
 201   0.0000       1.414346        38.4863 
 202   0.0000       1.429763        38.9058 
 203   0.0000       1.433757        39.0145 
 204   0.0000       1.438395        39.1407 
 205   0.0000       1.472926        40.0804 
 206   0.0000       1.487686        40.4820 
 207   0.0000       1.521206        41.3941 
 208   0.0000       1.530294        41.6414 
 209   0.0000       1.551484        42.2180 
 210   0.0000       1.580104        42.9968 
 211   0.0000       1.606730        43.7213 
 212   0.0000       1.608388        43.7664 
 213   0.0000       1.620176        44.0872 
 214   0.0000       1.650053        44.9002 
 215   0.0000       1.657145        45.0932 
 216   0.0000       1.663549        45.2675 
 217   0.0000       1.697186        46.1828 
 218   0.0000       1.743065        47.4312 
 219   0.0000       1.765840        48.0509 
 220   0.0000       1.777943        48.3803 
 221   0.0000       1.788939        48.6795 
 222   0.0000       1.794435        48.8290 
 223   0.0000       1.808491        49.2115 
 224   0.0000       1.817614        49.4598 
 225   0.0000       1.822635        49.5964 
 226   0.0000       1.831342        49.8333 
 227   0.0000       1.841104        50.0990 
 228   0.0000       1.847073        50.2614 
 229   0.0000       1.851707        50.3875 
 230   0.0000       1.865509        50.7631 
 231   0.0000       1.866627        50.7935 
 232   0.0000       1.873730        50.9868 
 233   0.0000       1.884056        51.2678 
 234   0.0000       1.901191        51.7340 
 235   0.0000       1.904984        51.8372 
 236   0.0000       1.909852        51.9697 
 237   0.0000       1.912472        52.0410 
 238   0.0000       1.919850        52.2418 
 239   0.0000       1.939118        52.7661 
 240   0.0000       1.940761        52.8108 
 241   0.0000       1.950115        53.0653 
 242   0.0000       1.957359        53.2624 
 243   0.0000       1.969896        53.6036 
 244   0.0000       1.979268        53.8586 
 245   0.0000       1.988829        54.1188 
 246   0.0000       1.999926        54.4208 
 247   0.0000       2.002986        54.5040 
 248   0.0000       2.019512        54.9537 
 249   0.0000       2.034222        55.3540 
 250   0.0000       2.045193        55.6525 
 251   0.0000       2.055079        55.9215 
 252   0.0000       2.063974        56.1636 
 253   0.0000       2.078158        56.5495 
 254   0.0000       2.093840        56.9763 
 255   0.0000       2.122987        57.7694 
 256   0.0000       2.132503        58.0283 
 257   0.0000       2.137912        58.1756 
 258   0.0000       2.140419        58.2438 
 259   0.0000       2.153003        58.5862 
 260   0.0000       2.178533        59.2809 
 261   0.0000       2.183846        59.4255 
 262   0.0000       2.200664        59.8831 
 263   0.0000       2.208121        60.0860 
 264   0.0000       2.216946        60.3262 
 265   0.0000       2.238214        60.9049 
 266   0.0000       2.242701        61.0270 
 267   0.0000       2.258305        61.4516 
 268   0.0000       2.292452        62.3808 
 269   0.0000       2.304787        62.7165 
 270   0.0000       2.317320        63.0575 
 271   0.0000       2.349299        63.9277 
 272   0.0000       2.374790        64.6213 
 273   0.0000       2.386337        64.9355 
 274   0.0000       2.402639        65.3791 
 275   0.0000       2.407638        65.5152 
 276   0.0000       2.413193        65.6663 
 277   0.0000       2.436837        66.3097 
 278   0.0000       2.443651        66.4951 
 279   0.0000       2.469842        67.2078 
 280   0.0000       2.478650        67.4475 
 281   0.0000       2.486604        67.6639 
 282   0.0000       2.511844        68.3507 
 283   0.0000       2.518712        68.5376 
 284   0.0000       2.532672        68.9175 
 285   0.0000       2.546255        69.2871 
 286   0.0000       2.569706        69.9253 
 287   0.0000       2.586438        70.3806 
 288   0.0000       2.594950        70.6122 
 289   0.0000       2.609621        71.0114 
 290   0.0000       2.629208        71.5444 
 291   0.0000       2.654222        72.2251 
 292   0.0000       2.668554        72.6151 
 293   0.0000       2.676077        72.8198 
 294   0.0000       2.691720        73.2454 
 295   0.0000       2.706640        73.6514 
 296   0.0000       2.729341        74.2692 
 297   0.0000       2.737505        74.4913 
 298   0.0000       2.759109        75.0792 
 299   0.0000       2.795684        76.0744 
 300   0.0000       2.861111        77.8548 
 301   0.0000       2.867267        78.0223 
 302   0.0000       2.879769        78.3625 
 303   0.0000       2.886193        78.5373 
 304   0.0000       2.943172        80.0878 
 305   0.0000       2.950876        80.2974 
 306   0.0000       2.992579        81.4322 
 307   0.0000       2.999921        81.6320 
 308   0.0000       3.014282        82.0228 
 309   0.0000       3.040742        82.7428 
 310   0.0000       3.048589        82.9563 
 311   0.0000       3.054606        83.1201 
 312   0.0000       3.097733        84.2936 
 313   0.0000       3.107929        84.5710 
 314   0.0000       3.117316        84.8265 
 315   0.0000       3.147112        85.6373 
 316   0.0000       3.172300        86.3227 
 317   0.0000       3.198761        87.0427 
 318   0.0000       3.234225        88.0077 
 319   0.0000       3.270241        88.9878 
 320   0.0000       3.339520        90.8730 
 321   0.0000       3.398284        92.4720 

                    ********************************
                    * MULLIKEN POPULATION ANALYSIS *
                    ********************************

-----------------------
MULLIKEN ATOMIC CHARGES
-----------------------
   0 S :    0.141443
   1 C :   -0.126121
   2 C :   -0.054873
   3 C :    0.020687
   4 C :   -0.174435
   5 H :    0.041091
   6 C :    0.041094
   7 H :    0.021257
   8 H :    0.016164
   9 C :   -0.086948
  10 H :    0.029375
  11 H :    0.017775
  12 C :   -0.064941
  13 H :    0.034849
  14 H :    0.054128
  15 H :    0.052875
  16 S :    0.095658
  17 C :   -0.079023
  18 C :   -0.063825
  19 C :    0.000772
  20 C :   -0.198107
  21 H :    0.032996
  22 C :    0.097291
  23 H :   -0.004998
  24 H :    0.026473
  25 C :   -0.049087
  26 H :    0.028221
  27 H :    0.032119
  28 C :   -0.079453
  29 H :    0.025178
  30 H :    0.034626
  31 H :    0.034231
  32 H :    0.046962
  33 H :    0.056547
Sum of atomic charges:    0.0000000

--------------------------------
MULLIKEN REDUCED ORBITAL CHARGES
--------------------------------
  0 S s       :     5.834134  s :     5.834134
      pz      :     3.571899  p :     9.899230
      px      :     3.356748
      py      :     2.970583
      dz2     :     0.013503  d :     0.125193
      dxz     :     0.015471
      dyz     :     0.032266
      dx2y2   :     0.025706
      dxy     :     0.038246
  1 C s       :     3.176420  s :     3.176420
      pz      :     1.086190  p :     2.914940
      px      :     0.910270
      py      :     0.918480
      dz2     :     0.006055  d :     0.034761
      dxz     :     0.005369
      dyz     :     0.005562
      dx2y2   :     0.009154
      dxy     :     0.008621
  2 C s       :     3.097535  s :     3.097535
      pz      :     0.992461  p :     2.914919
      px      :     0.954657
      py      :     0.967801
      dz2     :     0.006936  d :     0.042419
      dxz     :     0.006852
      dyz     :     0.007957
      dx2y2   :     0.009063
      dxy     :     0.011612
  3 C s       :     3.193332  s :     3.193332
      pz      :     0.930992  p :     2.752429
      px      :     0.942263
      py      :     0.879175
      dz2     :     0.006143  d :     0.033552
      dxz     :     0.005862
      dyz     :     0.006408
      dx2y2   :     0.008620
      dxy     :     0.006519
  4 C s       :     3.058664  s :     3.058664
      pz      :     1.063643  p :     3.068069
      px      :     1.046367
      py      :     0.958059
      dz2     :     0.009244  d :     0.047703
      dxz     :     0.005595
      dyz     :     0.009782
      dx2y2   :     0.010432
      dxy     :     0.012650
  5 H s       :     0.936179  s :     0.936179
      pz      :     0.007166  p :     0.022729
      px      :     0.004699
      py      :     0.010864
  6 C s       :     2.989602  s :     2.989602
      pz      :     0.980469  p :     2.935392
      px      :     0.945062
      py      :     1.009861
      dz2     :     0.007931  d :     0.033912
      dxz     :     0.006492
      dyz     :     0.004415
      dx2y2   :     0.010123
      dxy     :     0.004950
  7 H s       :     0.954829  s :     0.954829
      pz      :     0.012333  p :     0.023914
      px      :     0.004730
      py      :     0.006850
  8 H s       :     0.960619  s :     0.960619
      pz      :     0.005480  p :     0.023217
      px      :     0.003487
      py      :     0.014250
  9 C s       :     3.061364  s :     3.061364
      pz      :     0.993173  p :     2.990125
      px      :     0.973965
      py      :     1.022987
      dz2     :     0.007814  d :     0.035459
      dxz     :     0.010160
      dyz     :     0.004399
      dx2y2   :     0.009124
      dxy     :     0.003964
 10 H s       :     0.948301  s :     0.948301
      pz      :     0.008203  p :     0.022325
      px      :     0.007870
      py      :     0.006251
 11 H s       :     0.958382  s :     0.958382
      pz      :     0.004337  p :     0.023843
      px      :     0.005071
      py      :     0.014434
 12 C s       :     3.058302  s :     3.058302
      pz      :     0.964721  p :     2.981272
      px      :     1.022710
      py      :     0.993841
      dz2     :     0.006898  d :     0.025367
      dxz     :     0.003366
      dyz     :     0.005562
      dx2y2   :     0.007172
      dxy     :     0.002369
 13 H s       :     0.940547  s :     0.940547
      pz      :     0.005690  p :     0.024604
      px      :     0.013656
      py      :     0.005258
 14 H s       :     0.923769  s :     0.923769
      pz      :     0.007809  p :     0.022103
      px      :     0.006497
      py      :     0.007797
 15 H s       :     0.926048  s :     0.926048
      pz      :     0.003775  p :     0.021076
      px      :     0.004303
      py      :     0.012998
 16 S s       :     5.853083  s :     5.853083
      pz      :     3.524182  p :     9.955531
      px      :     3.245323
      py      :     3.186026
      dz2     :     0.010169  d :     0.095728
      dxz     :     0.020572
      dyz     :     0.020793
      dx2y2   :     0.032591
      dxy     :     0.011603
 17 C s       :     3.140908  s :     3.140908
      pz      :     1.006876  p :     2.903834
      px      :     1.021871
      py      :     0.875087
      dz2     :     0.007387  d :     0.034280
      dxz     :     0.005139
      dyz     :     0.007711
      dx2y2   :     0.006681
      dxy     :     0.007362
 18 C s       :     3.178950  s :     3.178950
      pz      :     0.935872  p :     2.850482
      px      :     0.968694
      py      :     0.945916
      dz2     :     0.006449  d :     0.034393
      dxz     :     0.006283
      dyz     :     0.006874
      dx2y2   :     0.007538
      dxy     :     0.007249
 19 C s       :     3.052182  s :     3.052182
      pz      :     0.967670  p :     2.903194
      px      :     0.967142
      py      :     0.968381
      dz2     :     0.009451  d :     0.043852
      dxz     :     0.007337
      dyz     :     0.009688
      dx2y2   :     0.008973
      dxy     :     0.008404
 20 C s       :     3.113934  s :     3.113934
      pz      :     1.040365  p :     3.044111
      px      :     0.953972
      py      :     1.049773
      dz2     :     0.006985  d :     0.040061
      dxz     :     0.007453
      dyz     :     0.007889
      dx2y2   :     0.010167
      dxy     :     0.007566
 21 H s       :     0.944333  s :     0.944333
      pz      :     0.007994  p :     0.022671
      px      :     0.004080
      py      :     0.010597
 22 C s       :     2.909702  s :     2.909702
      pz      :     0.964588  p :     2.957965
      px      :     1.018532
      py      :     0.974846
      dz2     :     0.006196  d :     0.035042
      dxz     :     0.008127
      dyz     :     0.008380
      dx2y2   :     0.009979
      dxy     :     0.002362
 23 H s       :     0.980683  s :     0.980683
      pz      :     0.006624  p :     0.024314
      px      :     0.005838
      py      :     0.011853
 24 H s       :     0.949685  s :     0.949685
      pz      :     0.005218  p :     0.023842
      px      :     0.013202
      py      :     0.005422
 25 C s       :     3.052840  s :     3.052840
      pz      :     0.957826  p :     2.961762
      px      :     1.020252
      py      :     0.983685
      dz2     :     0.007403  d :     0.034484
      dxz     :     0.005811
      dyz     :     0.007925
      dx2y2   :     0.008084
      dxy     :     0.005261
 26 H s       :     0.947223  s :     0.947223
      pz      :     0.004906  p :     0.024556
      px      :     0.007215
      py      :     0.012434
 27 H s       :     0.945708  s :     0.945708
      pz      :     0.003790  p :     0.022173
      px      :     0.013367
      py      :     0.005016
 28 C s       :     3.034330  s :     3.034330
      pz      :     0.974645  p :     3.016411
      px      :     1.013156
      py      :     1.028610
      dz2     :     0.004731  d :     0.028713
      dxz     :     0.004236
      dyz     :     0.010181
      dx2y2   :     0.007329
      dxy     :     0.002236
 29 H s       :     0.950352  s :     0.950352
      pz      :     0.006779  p :     0.024470
      px      :     0.005775
      py      :     0.011916
 30 H s       :     0.943513  s :     0.943513
      pz      :     0.004231  p :     0.021862
      px      :     0.012915
      py      :     0.004715
 31 H s       :     0.942214  s :     0.942214
      pz      :     0.008933  p :     0.023555
      px      :     0.004617
      py      :     0.010005
 32 H s       :     0.928706  s :     0.928706
      pz      :     0.005336  p :     0.024332
      px      :     0.003756
      py      :     0.015240
 33 H s       :     0.919652  s :     0.919652
      pz      :     0.005163  p :     0.023801
      px      :     0.009149
      py      :     0.009489


                     *******************************
                     * LOEWDIN POPULATION ANALYSIS *
                     *******************************

----------------------
LOEWDIN ATOMIC CHARGES
----------------------
   0 S :    0.463366
   1 C :   -0.212643
   2 C :   -0.059304
   3 C :   -0.058257
   4 C :   -0.233814
   5 H :    0.041949
   6 C :   -0.033141
   7 H :    0.030760
   8 H :    0.020654
   9 C :   -0.039535
  10 H :    0.022854
  11 H :    0.016071
  12 C :   -0.073187
  13 H :    0.025789
  14 H :    0.034369
  15 H :    0.034530
  16 S :    0.369570
  17 C :   -0.180537
  18 C :   -0.080515
  19 C :   -0.052490
  20 C :   -0.176445
  21 H :    0.038080
  22 C :   -0.033860
  23 H :    0.026484
  24 H :    0.037501
  25 C :   -0.034582
  26 H :    0.020842
  27 H :    0.026767
  28 C :   -0.071959
  29 H :    0.017684
  30 H :    0.029787
  31 H :    0.027903
  32 H :    0.025407
  33 H :    0.029903

-------------------------------
LOEWDIN REDUCED ORBITAL CHARGES
-------------------------------
  0 S s       :     5.459529  s :     5.459529
      pz      :     3.546183  p :     9.918760
      px      :     3.378487
      py      :     2.994090
      dz2     :     0.016132  d :     0.158345
      dxz     :     0.017033
      dyz     :     0.041739
      dx2y2   :     0.033444
      dxy     :     0.049996
  1 C s       :     2.922559  s :     2.922559
      pz      :     1.110530  p :     3.206458
      px      :     1.031958
      py      :     1.063971
      dz2     :     0.012245  d :     0.083625
      dxz     :     0.013210
      dyz     :     0.012789
      dx2y2   :     0.023146
      dxy     :     0.022235
  2 C s       :     2.878394  s :     2.878394
      pz      :     1.002178  p :     3.078104
      px      :     1.024744
      py      :     1.051182
      dz2     :     0.014566  d :     0.102806
      dxz     :     0.016165
      dyz     :     0.018728
      dx2y2   :     0.022668
      dxy     :     0.030678
  3 C s       :     2.882402  s :     2.882402
      pz      :     1.022379  p :     3.088575
      px      :     1.032173
      py      :     1.034023
      dz2     :     0.013490  d :     0.087280
      dxz     :     0.016451
      dyz     :     0.016210
      dx2y2   :     0.022761
      dxy     :     0.018367
  4 C s       :     2.905197  s :     2.905197
      pz      :     1.092581  p :     3.214483
      px      :     1.089114
      py      :     1.032789
      dz2     :     0.019718  d :     0.114134
      dxz     :     0.014776
      dyz     :     0.022126
      dx2y2   :     0.025291
      dxy     :     0.032223
  5 H s       :     0.891270  s :     0.891270
      pz      :     0.020203  p :     0.066782
      px      :     0.014610
      py      :     0.031969
  6 C s       :     2.838227  s :     2.838227
      pz      :     1.038797  p :     3.112043
      px      :     1.005877
      py      :     1.067368
      dz2     :     0.018835  d :     0.082872
      dxz     :     0.016794
      dyz     :     0.010761
      dx2y2   :     0.025252
      dxy     :     0.011230
  7 H s       :     0.898993  s :     0.898993
      pz      :     0.036389  p :     0.070247
      px      :     0.015534
      py      :     0.018324
  8 H s       :     0.909157  s :     0.909157
      pz      :     0.016006  p :     0.070189
      px      :     0.013710
      py      :     0.040473
  9 C s       :     2.842912  s :     2.842912
      pz      :     1.024596  p :     3.113284
      px      :     1.018029
      py      :     1.070658
      dz2     :     0.019552  d :     0.083340
      dxz     :     0.022539
      dyz     :     0.009520
      dx2y2   :     0.021876
      dxy     :     0.009853
 10 H s       :     0.909396  s :     0.909396
      pz      :     0.026557  p :     0.067750
      px      :     0.024363
      py      :     0.016830
 11 H s       :     0.910834  s :     0.910834
      pz      :     0.015321  p :     0.073094
      px      :     0.016431
      py      :     0.041343
 12 C s       :     2.860722  s :     2.860722
      pz      :     1.025727  p :     3.149292
      px      :     1.074364
      py      :     1.049201
      dz2     :     0.017243  d :     0.063173
      dxz     :     0.008549
      dyz     :     0.013178
      dx2y2   :     0.018167
      dxy     :     0.006036
 13 H s       :     0.904225  s :     0.904225
      pz      :     0.016339  p :     0.069986
      px      :     0.039462
      py      :     0.014185
 14 H s       :     0.902782  s :     0.902782
      pz      :     0.023469  p :     0.062849
      px      :     0.016607
      py      :     0.022773
 15 H s       :     0.906121  s :     0.906121
      pz      :     0.011221  p :     0.059349
      px      :     0.010966
      py      :     0.037162
 16 S s       :     5.550410  s :     5.550410
      pz      :     3.517811  p :     9.963632
      px      :     3.245348
      py      :     3.200473
      dz2     :     0.011168  d :     0.116388
      dxz     :     0.024583
      dyz     :     0.025361
      dx2y2   :     0.041265
      dxy     :     0.014011
 17 C s       :     2.937022  s :     2.937022
      pz      :     1.067771  p :     3.163495
      px      :     1.081807
      py      :     1.013917
      dz2     :     0.015681  d :     0.080020
      dxz     :     0.013695
      dyz     :     0.018191
      dx2y2   :     0.015477
      dxy     :     0.016977
 18 C s       :     2.874902  s :     2.874902
      pz      :     1.037952  p :     3.116360
      px      :     1.039495
      py      :     1.038912
      dz2     :     0.015295  d :     0.089253
      dxz     :     0.018167
      dyz     :     0.018005
      dx2y2   :     0.018497
      dxy     :     0.019289
 19 C s       :     2.855950  s :     2.855950
      pz      :     1.021007  p :     3.085415
      px      :     1.023714
      py      :     1.040695
      dz2     :     0.022371  d :     0.111124
      dxz     :     0.018205
      dyz     :     0.026387
      dx2y2   :     0.021713
      dxy     :     0.022448
 20 C s       :     2.929153  s :     2.929153
      pz      :     1.072139  p :     3.152983
      px      :     1.000947
      py      :     1.079897
      dz2     :     0.015129  d :     0.094308
      dxz     :     0.016452
      dyz     :     0.019973
      dx2y2   :     0.024668
      dxy     :     0.018085
 21 H s       :     0.895924  s :     0.895924
      pz      :     0.022894  p :     0.065996
      px      :     0.012493
      py      :     0.030609
 22 C s       :     2.820919  s :     2.820919
      pz      :     1.027503  p :     3.125271
      px      :     1.057166
      py      :     1.040601
      dz2     :     0.013697  d :     0.087670
      dxz     :     0.020805
      dyz     :     0.022818
      dx2y2   :     0.026015
      dxy     :     0.004336
 23 H s       :     0.901675  s :     0.901675
      pz      :     0.019719  p :     0.071840
      px      :     0.016392
      py      :     0.035729
 24 H s       :     0.893076  s :     0.893076
      pz      :     0.016602  p :     0.069423
      px      :     0.037736
      py      :     0.015086
 25 C s       :     2.841907  s :     2.841907
      pz      :     1.011018  p :     3.110031
      px      :     1.068003
      py      :     1.031009
      dz2     :     0.016632  d :     0.082644
      dxz     :     0.013688
      dyz     :     0.020105
      dx2y2   :     0.019940
      dxy     :     0.012279
 26 H s       :     0.905987  s :     0.905987
      pz      :     0.016451  p :     0.073172
      px      :     0.019880
      py      :     0.036841
 27 H s       :     0.908712  s :     0.908712
      pz      :     0.013233  p :     0.064522
      px      :     0.036548
      py      :     0.014741
 28 C s       :     2.838835  s :     2.838835
      pz      :     1.030524  p :     3.160608
      px      :     1.054591
      py      :     1.075493
      dz2     :     0.011935  d :     0.072516
      dxz     :     0.011567
      dyz     :     0.025200
      dx2y2   :     0.018445
      dxy     :     0.005369
 29 H s       :     0.912615  s :     0.912615
      pz      :     0.020268  p :     0.069702
      px      :     0.016507
      py      :     0.032927
 30 H s       :     0.910659  s :     0.910659
      pz      :     0.011805  p :     0.059554
      px      :     0.035879
      py      :     0.011870
 31 H s       :     0.906649  s :     0.906649
      pz      :     0.026075  p :     0.065449
      px      :     0.012938
      py      :     0.026436
 32 H s       :     0.897739  s :     0.897739
      pz      :     0.018158  p :     0.076854
      px      :     0.013943
      py      :     0.044753
 33 H s       :     0.894823  s :     0.894823
      pz      :     0.016442  p :     0.075273
      px      :     0.027494
      py      :     0.031337


                      *****************************
                      * MAYER POPULATION ANALYSIS *
                      *****************************

  NA   - Mulliken gross atomic population
  ZA   - Total nuclear charge
  QA   - Mulliken gross atomic charge
  VA   - Mayer's total valence
  BVA  - Mayer's bonded valence
  FA   - Mayer's free valence

  ATOM       NA         ZA         QA         VA         BVA        FA
  0 S     15.8586    16.0000     0.1414     2.5509     2.5509    -0.0000
  1 C      6.1261     6.0000    -0.1261     3.8414     3.8414    -0.0000
  2 C      6.0549     6.0000    -0.0549     3.9636     3.9636     0.0000
  3 C      5.9793     6.0000     0.0207     3.8986     3.8986     0.0000
  4 C      6.1744     6.0000    -0.1744     3.8974     3.8974     0.0000
  5 H      0.9589     1.0000     0.0411     1.0014     1.0014     0.0000
  6 C      5.9589     6.0000     0.0411     3.9895     3.9895     0.0000
  7 H      0.9787     1.0000     0.0213     0.9818     0.9818     0.0000
  8 H      0.9838     1.0000     0.0162     0.9893     0.9893     0.0000
  9 C      6.0869     6.0000    -0.0869     4.0714     4.0714    -0.0000
 10 H      0.9706     1.0000     0.0294     0.9770     0.9770     0.0000
 11 H      0.9822     1.0000     0.0178     0.9810     0.9810    -0.0000
 12 C      6.0649     6.0000    -0.0649     3.9769     3.9769    -0.0000
 13 H      0.9652     1.0000     0.0348     0.9850     0.9850    -0.0000
 14 H      0.9459     1.0000     0.0541     0.9883     0.9883    -0.0000
 15 H      0.9471     1.0000     0.0529     0.9885     0.9885     0.0000
 16 S     15.9043    16.0000     0.0957     2.4549     2.4549    -0.0000
 17 C      6.0790     6.0000    -0.0790     3.8509     3.8509     0.0000
 18 C      6.0638     6.0000    -0.0638     3.9743     3.9743     0.0000
 19 C      5.9992     6.0000     0.0008     4.0475     4.0475     0.0000
 20 C      6.1981     6.0000    -0.1981     3.8961     3.8961     0.0000
 21 H      0.9670     1.0000     0.0330     0.9938     0.9938     0.0000
 22 C      5.9027     6.0000     0.0973     3.9250     3.9250     0.0000
 23 H      1.0050     1.0000    -0.0050     1.0011     1.0011     0.0000
 24 H      0.9735     1.0000     0.0265     0.9886     0.9886     0.0000
 25 C      6.0491     6.0000    -0.0491     4.0611     4.0611     0.0000
 26 H      0.9718     1.0000     0.0282     0.9840     0.9840    -0.0000
 27 H      0.9679     1.0000     0.0321     0.9820     0.9820     0.0000
 28 C      6.0795     6.0000    -0.0795     4.0185     4.0185     0.0000
 29 H      0.9748     1.0000     0.0252     0.9880     0.9880     0.0000
 30 H      0.9654     1.0000     0.0346     0.9846     0.9846     0.0000
 31 H      0.9658     1.0000     0.0342     0.9845     0.9845     0.0000
 32 H      0.9530     1.0000     0.0470     1.0048     1.0048    -0.0000
 33 H      0.9435     1.0000     0.0565     0.9962     0.9962     0.0000

  Mayer bond orders larger than 0.100000
B(  0-S ,  1-C ) :   1.1547 B(  0-S ,  4-C ) :   1.1978 B(  1-C ,  2-C ) :   1.5852 
B(  1-C , 32-H ) :   0.9743 B(  2-C ,  3-C ) :   1.2442 B(  2-C ,  6-C ) :   1.0152 
B(  3-C ,  4-C ) :   1.5565 B(  3-C ,  5-H ) :   0.9858 B(  4-C , 20-C ) :   1.0052 
B(  6-C ,  7-H ) :   0.9461 B(  6-C ,  8-H ) :   0.9528 B(  6-C ,  9-C ) :   1.0688 
B(  9-C , 10-H ) :   0.9599 B(  9-C , 11-H ) :   0.9592 B(  9-C , 12-C ) :   1.0609 
B( 12-C , 13-H ) :   0.9768 B( 12-C , 14-H ) :   0.9743 B( 12-C , 15-H ) :   0.9784 
B( 16-S , 17-C ) :   1.1528 B( 16-S , 20-C ) :   1.1316 B( 17-C , 18-C ) :   1.6251 
B( 17-C , 20-C ) :   0.1095 B( 17-C , 33-H ) :   0.9607 B( 18-C , 19-C ) :   1.2491 
B( 18-C , 21-H ) :   0.9775 B( 19-C , 20-C ) :   1.5882 B( 19-C , 22-C ) :   1.0695 
B( 22-C , 23-H ) :   0.9306 B( 22-C , 24-H ) :   0.9153 B( 22-C , 25-C ) :   1.0343 
B( 25-C , 26-H ) :   0.9516 B( 25-C , 27-H ) :   0.9619 B( 25-C , 28-C ) :   1.0856 
B( 28-C , 29-H ) :   0.9771 B( 28-C , 30-H ) :   0.9738 B( 28-C , 31-H ) :   0.9732 


-------
TIMINGS
-------

Total SCF time: 0 days 0 hours 0 min 32 sec 

Total time                  ....      32.690 sec
Sum of individual times     ....      31.444 sec  ( 96.2%)

Fock matrix formation       ....      29.365 sec  ( 89.8%)
  XC integration            ....       2.173 sec  (  7.4% of F)
    Basis function eval.    ....       0.236 sec  ( 10.9% of XC)
    Density eval.           ....       0.168 sec  (  7.8% of XC)
    XC-Functional eval.     ....       0.189 sec  (  8.7% of XC)
    XC-Potential eval.      ....       0.201 sec  (  9.2% of XC)
Diagonalization             ....       0.145 sec  (  0.4%)
Density matrix formation    ....       0.023 sec  (  0.1%)
Population analysis         ....       0.046 sec  (  0.1%)
Initial guess               ....       0.216 sec  (  0.7%)
Orbital Transformation      ....       0.000 sec  (  0.0%)
Orbital Orthonormalization  ....       0.000 sec  (  0.0%)
DIIS solution               ....       0.200 sec  (  0.6%)
SOSCF solution              ....       0.135 sec  (  0.4%)
Grid generation             ....       1.314 sec  (  4.0%)


-------------------------------------------------------------------------------
                          DFT DISPERSION CORRECTION                            
                                                                               
                              DFTD3 V3.1  Rev 1                                
                              USING zero damping                               
-------------------------------------------------------------------------------
The omegaB97X-D3 functional is recognized. Fit by Chai et al.
Active option DFTDOPT                   ...         3   

molecular C6(AA) [au] = 14198.055290 


            DFT-D V3
 parameters
 s6 scaling factor         :     1.0000 
 rs6 scaling factor        :     1.2810 
 s8 scaling factor         :     1.0000 
 rs8 scaling factor        :     1.0940 
 Damping factor alpha6     :    14.0000 
 Damping factor alpha8     :    16.0000 
 ad hoc parameters k1-k3   :    16.0000     1.3333    -4.0000 

 Edisp/kcal,au: -9.074855218149  -0.014461700779 
 E6   /kcal   :  -4.180658681 
 E8   /kcal   :  -4.894196537 
 % E8         :  53.931400768 

-------------------------   ----------------
Dispersion correction           -0.014461701
-------------------------   ----------------


-------------------------   --------------------
FINAL SINGLE POINT ENERGY     -1339.859186251361
-------------------------   --------------------


                            ***************************************
                            *     ORCA property calculations      *
                            ***************************************

                                    ---------------------
                                    Active property flags
                                    ---------------------
   (+) Dipole Moment


------------------------------------------------------------------------------
                       ORCA ELECTRIC PROPERTIES CALCULATION
------------------------------------------------------------------------------

Dipole Moment Calculation                       ... on
Quadrupole Moment Calculation                   ... off
Polarizability Calculation                      ... off
GBWName                                         ... config_4088.gbw
Electron density file                           ... config_4088.scfp
The origin for moment calculation is the CENTER OF MASS  = (-4.033573, -45.508827 110.598975)

-------------
DIPOLE MOMENT
-------------
                                X             Y             Z
Electronic contribution:    -24.16090      -0.23667      10.79639
Nuclear contribution   :     24.62129       0.10209     -10.86999
                        -----------------------------------------
Total Dipole Moment    :      0.46039      -0.13458      -0.07360
                        -----------------------------------------
Magnitude (a.u.)       :      0.48527
Magnitude (Debye)      :      1.23346



--------------------
Rotational spectrum 
--------------------
 
Rotational constants in cm-1:     0.017655     0.008995     0.007316 
Rotational constants in MHz :   529.294311   269.677841   219.332399 

 Dipole components along the rotational axes: 
x,y,z [a.u.] :    -0.218263     0.315393     0.297282 
x,y,z [Debye]:    -0.554781     0.801667     0.755631 

 

Timings for individual modules:

Sum of individual times         ...       33.997 sec (=   0.567 min)
GTO integral calculation        ...        0.894 sec (=   0.015 min)   2.6 %
SCF iterations                  ...       33.103 sec (=   0.552 min)  97.4 %
                             ****ORCA TERMINATED NORMALLY****
TOTAL RUN TIME: 0 days 0 hours 0 minutes 34 seconds 675 msec
