
                                 *****************
                                 * O   R   C   A *
                                 *****************

           --- An Ab Initio, DFT and Semiempirical electronic structure package ---

                  #######################################################
                  #                        -***-                        #
                  #          Department of theory and spectroscopy      #
                  #               Directorship: Frank Neese             #
                  #        Max Planck Institute fuer Kohlenforschung    #
                  #                Kaiser Wilhelm Platz 1               #
                  #                 D-45470 Muelheim/Ruhr               #
                  #                      Germany                        #
                  #                                                     #
                  #                  All rights reserved                #
                  #                        -***-                        #
                  #######################################################


                         Program Version 4.2.1 -  RELEASE  -


 With contributions from (in alphabetic order):
   Daniel Aravena         : Magnetic Suceptibility
   Michael Atanasov       : Ab Initio Ligand Field Theory (pilot matlab implementation)
   Alexander A. Auer      : GIAO ZORA, VPT2
   Ute Becker             : Parallelization
   Giovanni Bistoni       : ED, misc. LED, open-shell LED, HFLD
   Martin Brehm           : Molecular dynamics
   Dmytro Bykov           : SCF Hessian
   Vijay G. Chilkuri      : MRCI spin determinant printing, contributions to CSF-ICE
   Dipayan Datta          : RHF DLPNO-CCSD density
   Achintya Kumar Dutta   : EOM-CC, STEOM-CC
   Dmitry Ganyushin       : Spin-Orbit,Spin-Spin,Magnetic field MRCI
   Miquel Garcia          : C-PCM Hessian, Gaussian charge scheme
   Yang Guo               : DLPNO-NEVPT2, CIM, IAO-localization
   Andreas Hansen         : Spin unrestricted coupled pair/coupled cluster methods
   Benjamin Helmich-Paris : CASSCF linear response (MC-RPA)
   Lee Huntington         : MR-EOM, pCC
   Robert Izsak           : Overlap fitted RIJCOSX, COSX-SCS-MP3, EOM
   Christian Kollmar      : KDIIS, OOCD, Brueckner-CCSD(T), CCSD density
   Simone Kossmann        : Meta GGA functionals, TD-DFT gradient, OOMP2, MP2 Hessian
   Martin Krupicka        : AUTO-CI
   Lucas Lang             : DCDCAS
   Dagmar Lenk            : GEPOL surface, SMD
   Dimitrios Liakos       : Extrapolation schemes; Compound Job, initial MDCI parallelization
   Dimitrios Manganas     : Further ROCIS development; embedding schemes
   Dimitrios Pantazis     : SARC Basis sets
   Taras Petrenko         : DFT Hessian,TD-DFT gradient, ASA, ECA, R-Raman, ABS, FL, XAS/XES, NRVS
   Peter Pinski           : DLPNO-MP2, DLPNO-MP2 Gradient
   Christoph Reimann      : Effective Core Potentials
   Marius Retegan         : Local ZFS, SOC
   Christoph Riplinger    : Optimizer, TS searches, QM/MM, DLPNO-CCSD(T), (RO)-DLPNO pert. Triples
   Tobias Risthaus        : Range-separated hybrids, TD-DFT gradient, RPA, STAB
   Michael Roemelt        : Original ROCIS implementation
   Masaaki Saitow         : Open-shell DLPNO-CCSD energy and density
   Barbara Sandhoefer     : DKH picture change effects
   Avijit Sen             : IP-ROCIS
   Kantharuban Sivalingam : CASSCF convergence, NEVPT2, FIC-MRCI
   Bernardo de Souza      : ESD, SOC TD-DFT
   Georgi Stoychev        : AutoAux, RI-MP2 NMR
   Willem Van den Heuvel  : Paramagnetic NMR
   Boris Wezisla          : Elementary symmetry handling
   Frank Wennmohs         : Technical directorship


 We gratefully acknowledge several colleagues who have allowed us to
 interface, adapt or use parts of their codes:
   Stefan Grimme, W. Hujo, H. Kruse,             : VdW corrections, initial TS optimization,
                  C. Bannwarth                     DFT functionals, gCP, sTDA/sTD-DF
   Ed Valeev, F. Pavosevic, A. Kumar             : LibInt (2-el integral package), F12 methods
   Garnet Chan, S. Sharma, J. Yang, R. Olivares  : DMRG
   Ulf Ekstrom                                   : XCFun DFT Library
   Mihaly Kallay                                 : mrcc  (arbitrary order and MRCC methods)
   Andreas Klamt, Michael Diedenhofen            : otool_cosmo (COSMO solvation model)
   Jiri Pittner, Ondrej Demel                    : Mk-CCSD
   Frank Weinhold                                : gennbo (NPA and NBO analysis)
   Christopher J. Cramer and Donald G. Truhlar   : smd solvation model
   Lars Goerigk                                  : TD-DFT with DH, B97 family of functionals
   V. Asgeirsson, H. Jonsson                     : NEB implementation
   FAccTs GmbH                                   : IRC, NEB, NEB-TS, Multilevel, MM, QM/MM, CI optimization
   S Lehtola, MJT Oliveira, MAL Marques          : LibXC Library


 Your calculation uses the libint2 library for the computation of 2-el integrals
 For citations please refer to: http://libint.valeyev.net

 Your ORCA version has been built with support for libXC version: 4.2.3
 For citations please refer to: https://tddft.org/programs/libxc/

 This ORCA versions uses:
   CBLAS   interface :  Fast vector & matrix operations
   LAPACKE interface :  Fast linear algebra routines
   SCALAPACK package :  Parallel linear algebra routines


Your calculation utilizes the atom-pairwise dispersion correction
with the zero-damping scheme (D30)
Cite in your paper:
S.Grimme, J.Antony, S.Ehrlich and H.Krieg, J.Chem.Phys., 132, (2010), 154104 
   

XCFun DFT library Copyright 2009-2010 Ulf Ekstrom and contributors.
See http://admol.org/xcfun for more information. This is free soft-
ware; see the source code for copying conditions. There is ABSOLUTELY
NO WARRANTY; not even for MERCHANTABILITY or FITNESS FOR A PARTICULAR
PURPOSE. For details see the documentation. Scientific users of this 
library should cite U. Ekstrom, L. Visscher, R. Bast, A. J. Thorvald-
sen and K. Ruud; J.Chem.Theor.Comp. 2010, DOI: 10.1021/ct100117s
XCFun Version 0.99 
----- Orbital basis set information -----
Your calculation utilizes the basis: def2-SVP
   F. Weigend and R. Ahlrichs, Phys. Chem. Chem. Phys. 7, 3297 (2005).

================================================================================
                                        WARNINGS
                       Please study these warnings very carefully!
================================================================================


INFO   : the flag for use of LIBINT has been found!

================================================================================
                                       INPUT FILE
================================================================================
NAME = config_3005.inp
|  1> ! wB97X-D3 SP def2-SVP
|  2> %pal
|  3> nprocs 16
|  4> end
|  5> 
|  6> * xyz 0 1
|  7> S 	 53.5406 	 0.203803 	 78.8882 	 
|  8> C 	 52.1981 	 -0.0776344 	 79.9464 	 
|  9> C 	 52.5339 	 0.189599 	 81.3026 	 
| 10> C 	 53.9083 	 0.641348 	 81.4671 	 
| 11> C 	 54.5786 	 0.780051 	 80.2469 	 
| 12> H 	 54.5842 	 0.957802 	 82.335 	 
| 13> C 	 51.5044 	 0.0295104 	 82.4522 	 
| 14> H 	 51.8724 	 -0.600122 	 83.2351 	 
| 15> H 	 50.6181 	 -0.474562 	 81.9981 	 
| 16> C 	 51.1461 	 1.34309 	 83.0555 	 
| 17> H 	 51.9931 	 1.59274 	 83.7282 	 
| 18> H 	 51.1592 	 2.16808 	 82.2846 	 
| 19> C 	 49.8293 	 1.43666 	 83.8953 	 
| 20> H 	 49.8986 	 0.769777 	 84.7999 	 
| 21> H 	 49.605 	 2.38884 	 84.3396 	 
| 22> H 	 49.0483 	 0.968606 	 83.3507 	 
| 23> S 	 56.1407 	 3.16545 	 80.2221 	 
| 24> C 	 57.8713 	 3.04007 	 79.8807 	 
| 25> C 	 58.2503 	 1.70828 	 79.7286 	 
| 26> C 	 57.1699 	 0.792055 	 79.7839 	 
| 27> C 	 55.9384 	 1.36517 	 80.1121 	 
| 28> H 	 59.2692 	 1.52651 	 79.4509 	 
| 29> C 	 57.4481 	 -0.662134 	 79.5073 	 
| 30> H 	 58.413 	 -0.63471 	 79.0689 	 
| 31> H 	 56.7287 	 -0.924092 	 78.7775 	 
| 32> C 	 57.4142 	 -1.62003 	 80.6649 	 
| 33> H 	 56.357 	 -1.68892 	 80.8877 	 
| 34> H 	 58.0468 	 -1.18848 	 81.4501 	 
| 35> C 	 57.8854 	 -3.11906 	 80.3049 	 
| 36> H 	 58.8637 	 -3.06579 	 79.8864 	 
| 37> H 	 57.1339 	 -3.69538 	 79.7807 	 
| 38> H 	 58.0339 	 -3.6458 	 81.2551 	 
| 39> H 	 51.2569 	 -0.455025 	 79.6746 	 
| 40> H 	 58.6706 	 3.73751 	 79.9429 	 
| 41> *
| 42> 
| 43>                          ****END OF INPUT****
================================================================================

                       ****************************
                       * Single Point Calculation *
                       ****************************

---------------------------------
CARTESIAN COORDINATES (ANGSTROEM)
---------------------------------
  S     53.540600    0.203803   78.888200
  C     52.198100   -0.077634   79.946400
  C     52.533900    0.189599   81.302600
  C     53.908300    0.641348   81.467100
  C     54.578600    0.780051   80.246900
  H     54.584200    0.957802   82.335000
  C     51.504400    0.029510   82.452200
  H     51.872400   -0.600122   83.235100
  H     50.618100   -0.474562   81.998100
  C     51.146100    1.343090   83.055500
  H     51.993100    1.592740   83.728200
  H     51.159200    2.168080   82.284600
  C     49.829300    1.436660   83.895300
  H     49.898600    0.769777   84.799900
  H     49.605000    2.388840   84.339600
  H     49.048300    0.968606   83.350700
  S     56.140700    3.165450   80.222100
  C     57.871300    3.040070   79.880700
  C     58.250300    1.708280   79.728600
  C     57.169900    0.792055   79.783900
  C     55.938400    1.365170   80.112100
  H     59.269200    1.526510   79.450900
  C     57.448100   -0.662134   79.507300
  H     58.413000   -0.634710   79.068900
  H     56.728700   -0.924092   78.777500
  C     57.414200   -1.620030   80.664900
  H     56.357000   -1.688920   80.887700
  H     58.046800   -1.188480   81.450100
  C     57.885400   -3.119060   80.304900
  H     58.863700   -3.065790   79.886400
  H     57.133900   -3.695380   79.780700
  H     58.033900   -3.645800   81.255100
  H     51.256900   -0.455025   79.674600
  H     58.670600    3.737510   79.942900

----------------------------
CARTESIAN COORDINATES (A.U.)
----------------------------
  NO LB      ZA    FRAG     MASS         X           Y           Z
   0 S    16.0000    0    32.060  101.177071    0.385132  149.077093
   1 C     6.0000    0    12.011   98.640114   -0.146708  151.076801
   2 C     6.0000    0    12.011   99.274684    0.358290  153.639648
   3 C     6.0000    0    12.011  101.871923    1.211972  153.950508
   4 C     6.0000    0    12.011  103.138607    1.474083  151.644664
   5 H     1.0000    0     1.008  103.149189    1.809983  155.590601
   6 C     6.0000    0    12.011   97.329211    0.055767  155.812077
   7 H     1.0000    0     1.008   98.024630   -1.134066  157.291544
   8 H     1.0000    0     1.008   95.654346   -0.896792  154.953953
   9 C     6.0000    0    12.011   96.652122    2.538072  156.952149
  10 H     1.0000    0     1.008   98.252720    3.009842  158.223368
  11 H     1.0000    0     1.008   96.676877    4.097077  155.495359
  12 C     6.0000    0    12.011   94.163730    2.714894  158.539141
  13 H     1.0000    0     1.008   94.294688    1.454668  160.248587
  14 H     1.0000    0     1.008   93.739865    4.514253  159.378746
  15 H     1.0000    0     1.008   92.687854    1.830400  157.509996
  16 S    16.0000    0    32.060  106.090548    5.981834  151.597799
  17 C     6.0000    0    12.011  109.360908    5.744900  150.952646
  18 C     6.0000    0    12.011  110.077114    3.228181  150.665219
  19 C     6.0000    0    12.011  108.035454    1.496767  150.769721
  20 C     6.0000    0    12.011  105.708256    2.579797  151.389929
  21 H     1.0000    0     1.008  112.002556    2.884686  150.140442
  22 C     6.0000    0    12.011  108.561176   -1.251252  150.247023
  23 H     1.0000    0     1.008  110.384573   -1.199428  149.418567
  24 H     1.0000    0     1.008  107.201707   -1.746281  148.867901
  25 C     6.0000    0    12.011  108.497114   -3.061413  152.434570
  26 H     1.0000    0     1.008  106.499296   -3.191596  152.855601
  27 H     1.0000    0     1.008  109.692555   -2.245902  153.918383
  28 C     6.0000    0    12.011  109.387553   -5.894169  151.754268
  29 H     1.0000    0     1.008  111.236272   -5.793503  150.963418
  30 H     1.0000    0     1.008  107.967424   -6.983256  150.763674
  31 H     1.0000    0     1.008  109.668177   -6.889564  153.549886
  32 H     1.0000    0     1.008   96.861503   -0.859873  150.563174
  33 H     1.0000    0     1.008  110.871366    7.062870  151.070187

--------------------------------
INTERNAL COORDINATES (ANGSTROEM)
--------------------------------
 S      0   0   0     0.000000000000     0.00000000     0.00000000
 C      1   0   0     1.732426188938     0.00000000     0.00000000
 C      2   1   0     1.422481553510   111.64812500     0.00000000
 C      3   2   1     1.456060702375   112.88137487     0.49050637
 C      4   3   2     1.399081360111   112.61005831     3.08726276
 H      4   3   2     1.144654687719   136.78603930   179.96619014
 C      3   2   1     1.551476319462   122.03358782   179.39276728
 H      7   3   2     1.069950171330   112.00428042   126.68216402
 H      7   3   2     1.116164631424   105.78625367     9.54314288
 C      7   3   2     1.489241802239   111.64198628   247.65952169
 H     10   7   3     1.110071805110   105.08700306   281.34070716
 H     10   7   3     1.129188611393   111.41181338    33.26137573
 C     10   7   3     1.564602705130   118.20823781   161.25906836
 H     13  10   7     1.125982497950   110.12071369    63.10076743
 H     13  10   7     1.074411342271   116.78623847   178.57657870
 H     13  10   7     1.060954620573   108.52012554   313.02136633
 S      5   4   3     2.851473275204   110.66977006   137.81033047
 C     17   5   4     1.768403365864   118.58609733   124.15895767
 C     18  17   5     1.392996774619   110.80101303   356.96556351
 C     19  18  17     1.417670801218   113.97169394     4.29058155
 C     20  19  18     1.397414860814   114.56427167   353.94988903
 H     19  18  17     1.071594528215   116.69011057   175.87266595
 C     20  19  18     1.506176765098   118.42801788   174.56718140
 H     23  20  19     1.060178591453   102.65450305   345.50548333
 H     23  20  19     1.057717539688   103.89823813   231.00839767
 C     23  20  19     1.502914407681   118.01769305   107.66073982
 H     26  23  20     1.082616050177   102.77345419    72.38192837
 H     26  23  20     1.096794056558   106.71599867   309.68742556
 C     26  23  20     1.612054707788   114.46088166   186.57319290
 H     29  26  23     1.065387644428   108.03705719    56.05084265
 H     29  26  23     1.082442900295   113.59764419   282.72662059
 H     29  26  23     1.096534230017   107.02313907   167.38031773
 H      2   1   3     1.049836341993   126.51222075   183.67832404
 H     18  17   5     1.062624996695   132.70933498   189.66348411

---------------------------
INTERNAL COORDINATES (A.U.)
---------------------------
 S      0   0   0     0.000000000000     0.00000000     0.00000000
 C      1   0   0     3.273811044326     0.00000000     0.00000000
 C      2   1   0     2.688100566688   111.64812500     0.00000000
 C      3   2   1     2.751555961854   112.88137487     0.49050637
 C      4   3   2     2.643880609683   112.61005831     3.08726276
 H      4   3   2     2.163083877697   136.78603930   179.96619014
 C      3   2   1     2.931865347046   122.03358782   179.39276728
 H      7   3   2     2.021912800756   112.00428042   126.68216402
 H      7   3   2     2.109245473760   105.78625367     9.54314288
 C      7   3   2     2.814259153419   111.64198628   247.65952169
 H     10   7   3     2.097731700645   105.08700306   281.34070716
 H     10   7   3     2.133857229076   111.41181338    33.26137573
 C     10   7   3     2.956670621088   118.20823781   161.25906836
 H     13  10   7     2.127798552713   110.12071369    63.10076743
 H     13  10   7     2.030343192070   116.78623847   178.57657870
 H     13  10   7     2.004913673402   108.52012554   313.02136633
 S      5   4   3     5.388503568330   110.66977006   137.81033047
 C     17   5   4     3.341798055788   118.58609733   124.15895767
 C     18  17   5     2.632382409466   110.80101303   356.96556351
 C     19  18  17     2.679009562358   113.97169394     4.29058155
 C     20  19  18     2.640731382411   114.56427167   353.94988903
 H     19  18  17     2.025020184935   116.69011057   175.87266595
 C     20  19  18     2.846261595311   118.42801788   174.56718140
 H     23  20  19     2.003447190893   102.65450305   345.50548333
 H     23  20  19     1.998796477056   103.89823813   231.00839767
 C     23  20  19     2.840096633242   118.01769305   107.66073982
 H     26  23  20     2.045847843021   102.77345419    72.38192837
 H     26  23  20     2.072640392206   106.71599867   309.68742556
 C     26  23  20     3.046341910617   114.46088166   186.57319290
 H     29  26  23     2.013290874433   108.03705719    56.05084265
 H     29  26  23     2.045520637166   113.59764419   282.72662059
 H     29  26  23     2.072149391203   107.02313907   167.38031773
 H      2   1   3     1.983903171804   126.51222075   183.67832404
 H     18  17   5     2.008070226812   132.70933498   189.66348411

---------------------
BASIS SET INFORMATION
---------------------
There are 3 groups of distinct atoms

 Group   1 Type S   : 10s7p1d contracted to 4s3p1d pattern {5311/511/1}
 Group   2 Type C   : 7s4p1d contracted to 3s2p1d pattern {511/31/1}
 Group   3 Type H   : 4s1p contracted to 2s1p pattern {31/1}

Atom   0S    basis set group =>   1
Atom   1C    basis set group =>   2
Atom   2C    basis set group =>   2
Atom   3C    basis set group =>   2
Atom   4C    basis set group =>   2
Atom   5H    basis set group =>   3
Atom   6C    basis set group =>   2
Atom   7H    basis set group =>   3
Atom   8H    basis set group =>   3
Atom   9C    basis set group =>   2
Atom  10H    basis set group =>   3
Atom  11H    basis set group =>   3
Atom  12C    basis set group =>   2
Atom  13H    basis set group =>   3
Atom  14H    basis set group =>   3
Atom  15H    basis set group =>   3
Atom  16S    basis set group =>   1
Atom  17C    basis set group =>   2
Atom  18C    basis set group =>   2
Atom  19C    basis set group =>   2
Atom  20C    basis set group =>   2
Atom  21H    basis set group =>   3
Atom  22C    basis set group =>   2
Atom  23H    basis set group =>   3
Atom  24H    basis set group =>   3
Atom  25C    basis set group =>   2
Atom  26H    basis set group =>   3
Atom  27H    basis set group =>   3
Atom  28C    basis set group =>   2
Atom  29H    basis set group =>   3
Atom  30H    basis set group =>   3
Atom  31H    basis set group =>   3
Atom  32H    basis set group =>   3
Atom  33H    basis set group =>   3


           ************************************************************
           *        Program running with 16 parallel MPI-processes    *
           *              working on a common directory               *
           ************************************************************
------------------------------------------------------------------------------
                           ORCA GTO INTEGRAL CALCULATION
------------------------------------------------------------------------------

                         BASIS SET STATISTICS AND STARTUP INFO

 # of primitive gaussian shells          ...  294
 # of primitive gaussian functions       ...  534
 # of contracted shells                  ...  154
 # of contracted basis functions         ...  322
 Highest angular momentum                ...    2
 Maximum contraction depth               ...    5
 Integral package used                   ... LIBINT
 Integral threshhold            Thresh   ...  1.000e-10
 Primitive cut-off              TCut     ...  1.000e-11


------------------------------ INTEGRAL EVALUATION ----------------------------


 * One electron integrals 
 Pre-screening matrix                    ... done
 Shell pair data                         ... done (   0.003 sec)



           ************************************************************
           *        Program running with 16 parallel MPI-processes    *
           *              working on a common directory               *
           ************************************************************
-------------------------------------------------------------------------------
                                 ORCA SCF
-------------------------------------------------------------------------------

------------
SCF SETTINGS
------------
Hamiltonian:
 Density Functional     Method          .... DFT(GTOs)
 Exchange Functional    Exchange        .... WB97X-D3
 Correlation Functional Correlation     .... WB97X-D3
 Gradients option       PostSCFGGA      .... off
 Hybrid DFT is turned on
   Fraction HF Exchange ScalHFX         ....  0.195728
   Scaling of DF-GGA-X  ScalDFX         ....  0.000000
   Scaling of DF-GGA-C  ScalDFC         ....  1.000000
   Scaling of DF-LDA-C  ScalLDAC        ....  1.000000
   Perturbative correction              ....  0.000000
   Density functional embedding theory  .... OFF
 Long-range corrected/Screened/Range-Separated Hybrid DFT is turned on
   Amount of maximum screened exact exchange              ....  0.804272
   Range separation parameter mu (erf(mu*r12)/r12)        ....  0.250000


General Settings:
 Integral files         IntName         .... config_3005
 Hartree-Fock type      HFTyp           .... RHF
 Total Charge           Charge          ....    0
 Multiplicity           Mult            ....    1
 Number of Electrons    NEL             ....  134
 Basis Dimension        Dim             ....  322
 Nuclear Repulsion      ENuc            ....   1258.3221484920 Eh

Convergence Acceleration:
 DIIS                   CNVDIIS         .... on
   Start iteration      DIISMaxIt       ....    12
   Startup error        DIISStart       ....  0.200000
   # of expansion vecs  DIISMaxEq       ....     5
   Bias factor          DIISBfac        ....   1.050
   Max. coefficient     DIISMaxC        ....  10.000
 Newton-Raphson         CNVNR           .... off
 SOSCF                  CNVSOSCF        .... on
   Start iteration      SOSCFMaxIt      ....   150
   Startup grad/error   SOSCFStart      ....  0.003300
 Level Shifting         CNVShift        .... on
   Level shift para.    LevelShift      ....    0.2500
   Turn off err/grad.   ShiftErr        ....    0.0010
 Zerner damping         CNVZerner       .... off
 Static damping         CNVDamp         .... on
   Fraction old density DampFac         ....    0.7000
   Max. Damping (<1)    DampMax         ....    0.9800
   Min. Damping (>=0)   DampMin         ....    0.0000
   Turn off err/grad.   DampErr         ....    0.1000
 Fernandez-Rico         CNVRico         .... off

SCF Procedure:
 Maximum # iterations   MaxIter         ....   125
 SCF integral mode      SCFMode         .... Direct
   Integral package                     .... LIBINT
 Reset frequency        DirectResetFreq ....    20
 Integral Threshold     Thresh          ....  1.000e-10 Eh
 Primitive CutOff       TCut            ....  1.000e-11 Eh

Convergence Tolerance:
 Convergence Check Mode ConvCheckMode   .... Total+1el-Energy
 Convergence forced     ConvForced      .... 0
 Energy Change          TolE            ....  1.000e-06 Eh
 1-El. energy change                    ....  1.000e-03 Eh
 Orbital Gradient       TolG            ....  5.000e-05
 Orbital Rotation angle TolX            ....  5.000e-05
 DIIS Error             TolErr          ....  1.000e-06


Diagonalization of the overlap matrix:
Smallest eigenvalue                        ... 6.563e-04
Time for diagonalization                   ...    0.014 sec
Threshold for overlap eigenvalues          ... 1.000e-08
Number of eigenvalues below threshold      ... 0
Time for construction of square roots      ...    0.024 sec
Total time needed                          ...    0.038 sec

-------------------
DFT GRID GENERATION
-------------------

General Integration Accuracy     IntAcc      ...  4.340
Radial Grid Type                 RadialGrid  ... Gauss-Chebyshev
Angular Grid (max. acc.)         AngularGrid ... Lebedev-110
Angular grid pruning method      GridPruning ... 3 (G Style)
Weight generation scheme         WeightScheme... Becke
Basis function cutoff            BFCut       ...    1.0000e-10
Integration weight cutoff        WCut        ...    1.0000e-14
Grids for H and He will be reduced by one unit

# of grid points (after initial pruning)     ...  41088 (   0.0 sec)
# of grid points (after weights+screening)   ...  37128 (   0.0 sec)
nearest neighbour list constructed           ...    0.0 sec
Grid point re-assignment to atoms done       ...    0.0 sec
Grid point division into batches done        ...    0.0 sec
Reduced shell lists constructed in    0.1 sec

Total number of grid points                  ...    37128
Total number of batches                      ...      598
Average number of points per batch           ...       62
Average number of grid points per atom       ...     1092
Average number of shells per batch           ...    78.03 (50.67%)
Average number of basis functions per batch  ...   153.26 (47.60%)
Average number of large shells per batch     ...    49.33 (63.23%)
Average number of large basis fcns per batch ...    99.64 (65.02%)
Maximum spatial batch extension              ...  13.37, 18.40, 12.78 au
Average spatial batch extension              ...   0.19,  0.22,  0.20 au

Time for grid setup =    0.161 sec

------------------------------
INITIAL GUESS: MODEL POTENTIAL
------------------------------
Loading Hartree-Fock densities                     ... done
Calculating cut-offs                               ... done
Setting up the integral package                    ... done
Initializing the effective Hamiltonian             ... done
Starting the Coulomb interaction                   ... done (   0.0 sec)
Reading the grid                                   ... done
Mapping shells                                     ... done
Starting the XC term evaluation                    ... done (   0.0 sec)
  promolecular density results
     # of electrons  =    133.986396899
     EX              =   -126.652380052
     EC              =     -4.604298520
     EX+EC           =   -131.256678572
Transforming the Hamiltonian                       ... done (   0.0 sec)
Diagonalizing the Hamiltonian                      ... done (   0.0 sec)
Back transforming the eigenvectors                 ... done (   0.0 sec)
Now organizing SCF variables                       ... done
                      ------------------
                      INITIAL GUESS DONE (   0.4 sec)
                      ------------------
--------------
SCF ITERATIONS
--------------
ITER       Energy         Delta-E        Max-DP      RMS-DP      [F,P]     Damp
               ***  Starting incremental Fock matrix formation  ***
  0  -1339.4305507444   0.000000000000 0.06416704  0.00147433  0.1614531 0.7000
  1  -1339.6066456505  -0.176094906128 0.04324915  0.00109428  0.0981193 0.7000
                               ***Turning on DIIS***
  2  -1339.6942016786  -0.087556028029 0.09004361  0.00211822  0.0512745 0.0000
  3  -1339.8272435498  -0.133041871253 0.04568761  0.00088487  0.0452172 0.0000
  4  -1339.8544055183  -0.027161968477 0.00759550  0.00020064  0.0072932 0.0000
                      *** Initiating the SOSCF procedure ***
                           *** Shutting down DIIS ***
                      *** Re-Reading the Fockian *** 
                      *** Removing any level shift *** 
ITER      Energy       Delta-E        Grad      Rot      Max-DP    RMS-DP
  5  -1339.85529500  -0.0008894836  0.001231  0.001231  0.003264  0.000098
               *** Restarting incremental Fock matrix formation ***
  6  -1339.85548197  -0.0001869634  0.001050  0.002824  0.003066  0.000067
  7  -1339.85554537  -0.0000634088  0.000549  0.003209  0.004006  0.000069
  8  -1339.85556285  -0.0000174764  0.000368  0.000686  0.000850  0.000022
  9  -1339.85556815  -0.0000052949  0.000168  0.000435  0.000378  0.000010
 10  -1339.85556880  -0.0000006497  0.000061  0.000193  0.000177  0.000004
                  ***Gradient check signals convergence***
              ***Rediagonalizing the Fockian in SOSCF/NRSCF***

               *****************************************************
               *                     SUCCESS                       *
               *           SCF CONVERGED AFTER  11 CYCLES          *
               *****************************************************

Setting up the final grid:

General Integration Accuracy     IntAcc      ...  4.670
Radial Grid Type                 RadialGrid  ... Gauss-Chebyshev
Angular Grid (max. acc.)         AngularGrid ... Lebedev-302
Angular grid pruning method      GridPruning ... 3 (G Style)
Weight generation scheme         WeightScheme... Becke
Basis function cutoff            BFCut       ...    1.0000e-10
Integration weight cutoff        WCut        ...    1.0000e-14
Grids for H and He will be reduced by one unit

# of grid points (after initial pruning)     ... 161752 (   0.0 sec)
# of grid points (after weights+screening)   ... 143391 (   0.1 sec)
nearest neighbour list constructed           ...    0.0 sec
Grid point re-assignment to atoms done       ...    0.0 sec
Grid point division into batches done        ...    0.5 sec
Reduced shell lists constructed in    0.6 sec

Total number of grid points                  ...   143391
Total number of batches                      ...     2256
Average number of points per batch           ...       63
Average number of grid points per atom       ...     4217
Average number of shells per batch           ...    72.03 (46.77%)
Average number of basis functions per batch  ...   140.55 (43.65%)
Average number of large shells per batch     ...    44.37 (61.60%)
Average number of large basis fcns per batch ...    89.54 (63.70%)
Maximum spatial batch extension              ...  11.96, 14.90, 13.59 au
Average spatial batch extension              ...   0.13,  0.14,  0.13 au

Final grid set up in    1.1 sec
Final integration                            ... done (   0.5 sec)
Change in XC energy                          ...     0.007587416
Integrated number of electrons               ...   133.999733766
Previous integrated no of electrons          ...   133.998773048

----------------
TOTAL SCF ENERGY
----------------

Total Energy       :        -1339.84798164 Eh          -36459.11713 eV

Components:
Nuclear Repulsion  :         1258.32214849 Eh           34240.68642 eV
Electronic Energy  :        -2598.17013013 Eh          -70699.80355 eV
One Electron Energy:        -4333.33201054 Eh         -117915.95874 eV
Two Electron Energy:         1735.16188041 Eh           47216.15519 eV

Virial components:
Potential Energy   :        -2670.94537977 Eh          -72680.11877 eV
Kinetic Energy     :         1331.09739813 Eh           36221.00164 eV
Virial Ratio       :            2.00657396


DFT components:
N(Alpha)           :       66.999866883023 electrons
N(Beta)            :       66.999866883023 electrons
N(Total)           :      133.999733766046 electrons
E(XC)              :      -94.173731599358 Eh       
DFET-embed. en.    :        0.000000000000 Eh       

---------------
SCF CONVERGENCE
---------------

  Last Energy change         ...   -2.6061e-07  Tolerance :   1.0000e-06
  Last MAX-Density change    ...    3.1404e-05  Tolerance :   1.0000e-05
  Last RMS-Density change    ...    8.1177e-07  Tolerance :   1.0000e-06
  Last Orbital Gradient      ...    9.8296e-06  Tolerance :   5.0000e-05
  Last Orbital Rotation      ...    2.9270e-05  Tolerance :   5.0000e-05

             **** THE GBW FILE WAS UPDATED (config_3005.gbw) ****
             **** DENSITY FILE WAS UPDATED (config_3005.scfp) ****
             **** ENERGY FILE WAS UPDATED (config_3005.en.tmp) ****
             **** THE GBW FILE WAS UPDATED (config_3005.gbw) ****
             **** DENSITY FILE WAS UPDATED (config_3005.scfp) ****
----------------
ORBITAL ENERGIES
----------------

  NO   OCC          E(Eh)            E(eV) 
   0   2.0000     -88.971052     -2421.0254 
   1   2.0000     -88.968844     -2420.9653 
   2   2.0000     -10.336955      -281.2828 
   3   2.0000     -10.332798      -281.1697 
   4   2.0000     -10.319616      -280.8110 
   5   2.0000     -10.319181      -280.7992 
   6   2.0000     -10.314504      -280.6719 
   7   2.0000     -10.308474      -280.5078 
   8   2.0000     -10.303341      -280.3682 
   9   2.0000     -10.294633      -280.1312 
  10   2.0000     -10.291250      -280.0391 
  11   2.0000     -10.288881      -279.9747 
  12   2.0000     -10.284997      -279.8690 
  13   2.0000     -10.279744      -279.7261 
  14   2.0000     -10.278375      -279.6888 
  15   2.0000     -10.277135      -279.6551 
  16   2.0000      -8.084725      -219.9966 
  17   2.0000      -8.081875      -219.9190 
  18   2.0000      -6.043286      -164.4462 
  19   2.0000      -6.040570      -164.3723 
  20   2.0000      -6.039284      -164.3373 
  21   2.0000      -6.036547      -164.2628 
  22   2.0000      -6.035585      -164.2366 
  23   2.0000      -6.032592      -164.1552 
  24   2.0000      -0.995359       -27.0851 
  25   2.0000      -0.976903       -26.5829 
  26   2.0000      -0.909722       -24.7548 
  27   2.0000      -0.907677       -24.6992 
  28   2.0000      -0.866654       -23.5828 
  29   2.0000      -0.844326       -22.9753 
  30   2.0000      -0.842082       -22.9142 
  31   2.0000      -0.814452       -22.1624 
  32   2.0000      -0.783055       -21.3080 
  33   2.0000      -0.771813       -21.0021 
  34   2.0000      -0.711204       -19.3528 
  35   2.0000      -0.693818       -18.8798 
  36   2.0000      -0.687816       -18.7164 
  37   2.0000      -0.664151       -18.0725 
  38   2.0000      -0.642298       -17.4778 
  39   2.0000      -0.608380       -16.5549 
  40   2.0000      -0.586939       -15.9714 
  41   2.0000      -0.573469       -15.6049 
  42   2.0000      -0.572907       -15.5896 
  43   2.0000      -0.560970       -15.2648 
  44   2.0000      -0.526588       -14.3292 
  45   2.0000      -0.520833       -14.1726 
  46   2.0000      -0.508751       -13.8438 
  47   2.0000      -0.507787       -13.8176 
  48   2.0000      -0.504317       -13.7232 
  49   2.0000      -0.497777       -13.5452 
  50   2.0000      -0.491843       -13.3837 
  51   2.0000      -0.483701       -13.1622 
  52   2.0000      -0.477276       -12.9873 
  53   2.0000      -0.466994       -12.7076 
  54   2.0000      -0.456095       -12.4110 
  55   2.0000      -0.447904       -12.1881 
  56   2.0000      -0.440435       -11.9849 
  57   2.0000      -0.433670       -11.8008 
  58   2.0000      -0.428376       -11.6567 
  59   2.0000      -0.427005       -11.6194 
  60   2.0000      -0.420486       -11.4420 
  61   2.0000      -0.408917       -11.1272 
  62   2.0000      -0.407451       -11.0873 
  63   2.0000      -0.338534        -9.2120 
  64   2.0000      -0.332565        -9.0496 
  65   2.0000      -0.323051        -8.7907 
  66   2.0000      -0.305429        -8.3111 
  67   0.0000       0.033501         0.9116 
  68   0.0000       0.048610         1.3228 
  69   0.0000       0.110432         3.0050 
  70   0.0000       0.113495         3.0884 
  71   0.0000       0.131839         3.5875 
  72   0.0000       0.132970         3.6183 
  73   0.0000       0.149622         4.0714 
  74   0.0000       0.156446         4.2571 
  75   0.0000       0.163672         4.4537 
  76   0.0000       0.167109         4.5473 
  77   0.0000       0.172195         4.6857 
  78   0.0000       0.188911         5.1405 
  79   0.0000       0.191666         5.2155 
  80   0.0000       0.195549         5.3211 
  81   0.0000       0.200060         5.4439 
  82   0.0000       0.206332         5.6146 
  83   0.0000       0.215902         5.8750 
  84   0.0000       0.219623         5.9762 
  85   0.0000       0.231944         6.3115 
  86   0.0000       0.236263         6.4290 
  87   0.0000       0.238271         6.4837 
  88   0.0000       0.242853         6.6084 
  89   0.0000       0.249978         6.8023 
  90   0.0000       0.253776         6.9056 
  91   0.0000       0.255551         6.9539 
  92   0.0000       0.266192         7.2435 
  93   0.0000       0.290648         7.9089 
  94   0.0000       0.305332         8.3085 
  95   0.0000       0.312730         8.5098 
  96   0.0000       0.314307         8.5527 
  97   0.0000       0.342195         9.3116 
  98   0.0000       0.348344         9.4789 
  99   0.0000       0.355392         9.6707 
 100   0.0000       0.373491        10.1632 
 101   0.0000       0.388248        10.5648 
 102   0.0000       0.402378        10.9493 
 103   0.0000       0.416267        11.3272 
 104   0.0000       0.444697        12.1008 
 105   0.0000       0.454834        12.3767 
 106   0.0000       0.469886        12.7862 
 107   0.0000       0.473201        12.8765 
 108   0.0000       0.489920        13.3314 
 109   0.0000       0.497170        13.5287 
 110   0.0000       0.501921        13.6580 
 111   0.0000       0.506386        13.7795 
 112   0.0000       0.519756        14.1433 
 113   0.0000       0.524944        14.2845 
 114   0.0000       0.530615        14.4388 
 115   0.0000       0.536407        14.5964 
 116   0.0000       0.538311        14.6482 
 117   0.0000       0.549472        14.9519 
 118   0.0000       0.552127        15.0241 
 119   0.0000       0.569884        15.5073 
 120   0.0000       0.584882        15.9154 
 121   0.0000       0.590620        16.0716 
 122   0.0000       0.593421        16.1478 
 123   0.0000       0.598520        16.2865 
 124   0.0000       0.615938        16.7605 
 125   0.0000       0.622530        16.9399 
 126   0.0000       0.631338        17.1796 
 127   0.0000       0.641753        17.4630 
 128   0.0000       0.650229        17.6936 
 129   0.0000       0.664802        18.0902 
 130   0.0000       0.671595        18.2750 
 131   0.0000       0.677779        18.4433 
 132   0.0000       0.681960        18.5571 
 133   0.0000       0.688685        18.7401 
 134   0.0000       0.701830        19.0978 
 135   0.0000       0.712809        19.3965 
 136   0.0000       0.713429        19.4134 
 137   0.0000       0.716105        19.4862 
 138   0.0000       0.729253        19.8440 
 139   0.0000       0.736833        20.0502 
 140   0.0000       0.739206        20.1148 
 141   0.0000       0.741126        20.1671 
 142   0.0000       0.753009        20.4904 
 143   0.0000       0.757352        20.6086 
 144   0.0000       0.759689        20.6722 
 145   0.0000       0.766060        20.8456 
 146   0.0000       0.773473        21.0473 
 147   0.0000       0.778347        21.1799 
 148   0.0000       0.780783        21.2462 
 149   0.0000       0.783388        21.3171 
 150   0.0000       0.787672        21.4336 
 151   0.0000       0.794692        21.6247 
 152   0.0000       0.796707        21.6795 
 153   0.0000       0.798637        21.7320 
 154   0.0000       0.800801        21.7909 
 155   0.0000       0.801996        21.8234 
 156   0.0000       0.806012        21.9327 
 157   0.0000       0.809280        22.0216 
 158   0.0000       0.811813        22.0905 
 159   0.0000       0.817044        22.2329 
 160   0.0000       0.822121        22.3711 
 161   0.0000       0.829142        22.5621 
 162   0.0000       0.832079        22.6420 
 163   0.0000       0.838923        22.8282 
 164   0.0000       0.845509        23.0075 
 165   0.0000       0.862788        23.4777 
 166   0.0000       0.864948        23.5364 
 167   0.0000       0.875959        23.8361 
 168   0.0000       0.882127        24.0039 
 169   0.0000       0.893033        24.3007 
 170   0.0000       0.902371        24.5548 
 171   0.0000       0.906711        24.6729 
 172   0.0000       0.917312        24.9613 
 173   0.0000       0.936823        25.4923 
 174   0.0000       0.949084        25.8259 
 175   0.0000       0.956438        26.0260 
 176   0.0000       0.983087        26.7512 
 177   0.0000       0.994986        27.0750 
 178   0.0000       0.996956        27.1285 
 179   0.0000       1.016920        27.6718 
 180   0.0000       1.051551        28.6142 
 181   0.0000       1.053917        28.6785 
 182   0.0000       1.080716        29.4078 
 183   0.0000       1.084326        29.5060 
 184   0.0000       1.100828        29.9550 
 185   0.0000       1.108539        30.1649 
 186   0.0000       1.123369        30.5684 
 187   0.0000       1.141777        31.0693 
 188   0.0000       1.149831        31.2885 
 189   0.0000       1.173769        31.9399 
 190   0.0000       1.200279        32.6612 
 191   0.0000       1.227584        33.4043 
 192   0.0000       1.247806        33.9545 
 193   0.0000       1.265125        34.4258 
 194   0.0000       1.279888        34.8275 
 195   0.0000       1.288727        35.0680 
 196   0.0000       1.318384        35.8750 
 197   0.0000       1.341997        36.5176 
 198   0.0000       1.366400        37.1816 
 199   0.0000       1.391912        37.8758 
 200   0.0000       1.404878        38.2287 
 201   0.0000       1.419028        38.6137 
 202   0.0000       1.436568        39.0910 
 203   0.0000       1.439655        39.1750 
 204   0.0000       1.452141        39.5148 
 205   0.0000       1.463952        39.8362 
 206   0.0000       1.474429        40.1213 
 207   0.0000       1.498497        40.7762 
 208   0.0000       1.528633        41.5962 
 209   0.0000       1.541973        41.9592 
 210   0.0000       1.569969        42.7210 
 211   0.0000       1.595127        43.4056 
 212   0.0000       1.621532        44.1241 
 213   0.0000       1.630034        44.3555 
 214   0.0000       1.643636        44.7256 
 215   0.0000       1.647230        44.8234 
 216   0.0000       1.666156        45.3384 
 217   0.0000       1.690703        46.0064 
 218   0.0000       1.747481        47.5514 
 219   0.0000       1.775476        48.3132 
 220   0.0000       1.786402        48.6105 
 221   0.0000       1.799236        48.9597 
 222   0.0000       1.806523        49.1580 
 223   0.0000       1.808051        49.1996 
 224   0.0000       1.828470        49.7552 
 225   0.0000       1.835724        49.9526 
 226   0.0000       1.844140        50.1816 
 227   0.0000       1.845893        50.2293 
 228   0.0000       1.853824        50.4451 
 229   0.0000       1.859201        50.5914 
 230   0.0000       1.861310        50.6488 
 231   0.0000       1.865144        50.7531 
 232   0.0000       1.885574        51.3091 
 233   0.0000       1.891263        51.4639 
 234   0.0000       1.903685        51.8019 
 235   0.0000       1.910686        51.9924 
 236   0.0000       1.915409        52.1209 
 237   0.0000       1.921680        52.2916 
 238   0.0000       1.929889        52.5149 
 239   0.0000       1.939260        52.7700 
 240   0.0000       1.941587        52.8333 
 241   0.0000       1.945577        52.9418 
 242   0.0000       1.960876        53.3581 
 243   0.0000       1.965855        53.4936 
 244   0.0000       1.973777        53.7092 
 245   0.0000       1.981224        53.9118 
 246   0.0000       1.993604        54.2487 
 247   0.0000       2.005469        54.5716 
 248   0.0000       2.016988        54.8850 
 249   0.0000       2.027643        55.1750 
 250   0.0000       2.036356        55.4121 
 251   0.0000       2.045561        55.6625 
 252   0.0000       2.052069        55.8396 
 253   0.0000       2.068244        56.2798 
 254   0.0000       2.079253        56.5793 
 255   0.0000       2.088327        56.8263 
 256   0.0000       2.115446        57.5642 
 257   0.0000       2.124476        57.8099 
 258   0.0000       2.149498        58.4908 
 259   0.0000       2.158124        58.7255 
 260   0.0000       2.165437        58.9245 
 261   0.0000       2.170484        59.0619 
 262   0.0000       2.182973        59.4017 
 263   0.0000       2.213890        60.2430 
 264   0.0000       2.222342        60.4730 
 265   0.0000       2.229291        60.6621 
 266   0.0000       2.240083        60.9558 
 267   0.0000       2.251365        61.2628 
 268   0.0000       2.304981        62.7217 
 269   0.0000       2.310634        62.8755 
 270   0.0000       2.321042        63.1588 
 271   0.0000       2.330683        63.4211 
 272   0.0000       2.362131        64.2769 
 273   0.0000       2.407982        65.5245 
 274   0.0000       2.410927        65.6046 
 275   0.0000       2.422476        65.9189 
 276   0.0000       2.442407        66.4613 
 277   0.0000       2.449796        66.6623 
 278   0.0000       2.460055        66.9415 
 279   0.0000       2.476356        67.3851 
 280   0.0000       2.480114        67.4873 
 281   0.0000       2.490519        67.7705 
 282   0.0000       2.508600        68.2625 
 283   0.0000       2.515338        68.4458 
 284   0.0000       2.519390        68.5561 
 285   0.0000       2.537974        69.0618 
 286   0.0000       2.553102        69.4734 
 287   0.0000       2.564593        69.7861 
 288   0.0000       2.569603        69.9225 
 289   0.0000       2.618175        71.2442 
 290   0.0000       2.632244        71.6270 
 291   0.0000       2.645252        71.9810 
 292   0.0000       2.678509        72.8859 
 293   0.0000       2.682719        73.0005 
 294   0.0000       2.713040        73.8256 
 295   0.0000       2.734642        74.4134 
 296   0.0000       2.740135        74.5629 
 297   0.0000       2.756580        75.0103 
 298   0.0000       2.798541        76.1522 
 299   0.0000       2.820648        76.7537 
 300   0.0000       2.846553        77.4587 
 301   0.0000       2.863937        77.9317 
 302   0.0000       2.900671        78.9313 
 303   0.0000       2.923028        79.5396 
 304   0.0000       2.959849        80.5416 
 305   0.0000       2.978782        81.0568 
 306   0.0000       3.000992        81.6611 
 307   0.0000       3.010881        81.9302 
 308   0.0000       3.016078        82.0717 
 309   0.0000       3.053722        83.0960 
 310   0.0000       3.060524        83.2811 
 311   0.0000       3.065896        83.4273 
 312   0.0000       3.101348        84.3920 
 313   0.0000       3.107215        84.5516 
 314   0.0000       3.132511        85.2400 
 315   0.0000       3.165633        86.1413 
 316   0.0000       3.180086        86.5345 
 317   0.0000       3.203858        87.1814 
 318   0.0000       3.209151        87.3254 
 319   0.0000       3.254196        88.5512 
 320   0.0000       3.324362        90.4605 
 321   0.0000       3.405054        92.6562 

                    ********************************
                    * MULLIKEN POPULATION ANALYSIS *
                    ********************************

-----------------------
MULLIKEN ATOMIC CHARGES
-----------------------
   0 S :    0.120358
   1 C :   -0.090459
   2 C :   -0.109440
   3 C :    0.022841
   4 C :   -0.185781
   5 H :    0.055292
   6 C :    0.097532
   7 H :    0.031593
   8 H :    0.015206
   9 C :   -0.121900
  10 H :    0.031035
  11 H :    0.044379
  12 C :   -0.027008
  13 H :    0.017880
  14 H :    0.042022
  15 H :    0.023141
  16 S :    0.110137
  17 C :   -0.065874
  18 C :   -0.062643
  19 C :   -0.043811
  20 C :   -0.190950
  21 H :    0.017374
  22 C :    0.142434
  23 H :   -0.008067
  24 H :    0.012223
  25 C :   -0.083299
  26 H :    0.036870
  27 H :    0.032683
  28 C :   -0.042224
  29 H :    0.027022
  30 H :    0.043128
  31 H :    0.030044
  32 H :    0.034281
  33 H :    0.043979
Sum of atomic charges:    0.0000000

--------------------------------
MULLIKEN REDUCED ORBITAL CHARGES
--------------------------------
  0 S s       :     5.840237  s :     5.840237
      pz      :     3.318315  p :     9.936382
      px      :     3.031392
      py      :     3.586674
      dz2     :     0.012802  d :     0.103023
      dxz     :     0.040792
      dyz     :     0.013750
      dx2y2   :     0.017723
      dxy     :     0.017956
  1 C s       :     3.170933  s :     3.170933
      pz      :     0.931222  p :     2.886863
      px      :     0.869912
      py      :     1.085729
      dz2     :     0.006926  d :     0.032663
      dxz     :     0.010968
      dyz     :     0.007051
      dx2y2   :     0.003916
      dxy     :     0.003801
  2 C s       :     3.099787  s :     3.099787
      pz      :     0.971272  p :     2.969258
      px      :     0.991959
      py      :     1.006027
      dz2     :     0.010735  d :     0.040396
      dxz     :     0.010654
      dyz     :     0.007003
      dx2y2   :     0.006122
      dxy     :     0.005882
  3 C s       :     3.211528  s :     3.211528
      pz      :     0.882215  p :     2.733180
      px      :     0.874022
      py      :     0.976943
      dz2     :     0.006858  d :     0.032451
      dxz     :     0.010405
      dyz     :     0.004982
      dx2y2   :     0.004795
      dxy     :     0.005411
  4 C s       :     3.089379  s :     3.089379
      pz      :     0.944006  p :     3.054294
      px      :     1.027248
      py      :     1.083040
      dz2     :     0.008580  d :     0.042108
      dxz     :     0.014831
      dyz     :     0.008607
      dx2y2   :     0.004983
      dxy     :     0.005108
  5 H s       :     0.922718  s :     0.922718
      pz      :     0.009619  p :     0.021990
      px      :     0.007250
      py      :     0.005121
  6 C s       :     2.952959  s :     2.952959
      pz      :     0.940118  p :     2.913397
      px      :     0.970317
      py      :     1.002962
      dz2     :     0.004357  d :     0.036113
      dxz     :     0.008437
      dyz     :     0.010402
      dx2y2   :     0.005806
      dxy     :     0.007111
  7 H s       :     0.944760  s :     0.944760
      pz      :     0.009594  p :     0.023647
      px      :     0.005707
      py      :     0.008347
  8 H s       :     0.963140  s :     0.963140
      pz      :     0.005686  p :     0.021654
      px      :     0.010051
      py      :     0.005916
  9 C s       :     3.090702  s :     3.090702
      pz      :     1.011127  p :     2.994592
      px      :     0.996611
      py      :     0.986854
      dz2     :     0.003555  d :     0.036606
      dxz     :     0.009143
      dyz     :     0.009364
      dx2y2   :     0.009184
      dxy     :     0.005360
 10 H s       :     0.947096  s :     0.947096
      pz      :     0.007787  p :     0.021868
      px      :     0.009192
      py      :     0.004889
 11 H s       :     0.934312  s :     0.934312
      pz      :     0.008736  p :     0.021309
      px      :     0.003729
      py      :     0.008844
 12 C s       :     3.006709  s :     3.006709
      pz      :     0.994722  p :     2.993049
      px      :     0.987918
      py      :     1.010409
      dz2     :     0.003175  d :     0.027251
      dxz     :     0.006418
      dyz     :     0.007767
      dx2y2   :     0.005812
      dxy     :     0.004078
 13 H s       :     0.959098  s :     0.959098
      pz      :     0.010449  p :     0.023022
      px      :     0.004262
      py      :     0.008310
 14 H s       :     0.933440  s :     0.933440
      pz      :     0.006939  p :     0.024537
      px      :     0.004445
      py      :     0.013153
 15 H s       :     0.951438  s :     0.951438
      pz      :     0.008223  p :     0.025421
      px      :     0.009957
      py      :     0.007241
 16 S s       :     5.849961  s :     5.849961
      pz      :     3.665468  p :     9.941744
      px      :     3.113209
      py      :     3.163067
      dz2     :     0.011545  d :     0.098157
      dxz     :     0.017164
      dyz     :     0.013276
      dx2y2   :     0.043477
      dxy     :     0.012695
 17 C s       :     3.134872  s :     3.134872
      pz      :     1.059123  p :     2.897157
      px      :     0.843156
      py      :     0.994879
      dz2     :     0.003150  d :     0.033844
      dxz     :     0.004936
      dyz     :     0.005200
      dx2y2   :     0.010750
      dxy     :     0.009808
 18 C s       :     3.172343  s :     3.172343
      pz      :     1.024005  p :     2.855542
      px      :     0.890619
      py      :     0.940919
      dz2     :     0.002583  d :     0.034757
      dxz     :     0.003788
      dyz     :     0.006735
      dx2y2   :     0.011552
      dxy     :     0.010099
 19 C s       :     3.069593  s :     3.069593
      pz      :     0.970920  p :     2.929920
      px      :     0.970911
      py      :     0.988089
      dz2     :     0.003813  d :     0.044297
      dxz     :     0.007896
      dyz     :     0.006854
      dx2y2   :     0.011027
      dxy     :     0.014708
 20 C s       :     3.102056  s :     3.102056
      pz      :     1.141684  p :     3.048334
      px      :     1.024520
      py      :     0.882130
      dz2     :     0.003787  d :     0.040560
      dxz     :     0.005926
      dyz     :     0.004791
      dx2y2   :     0.016127
      dxy     :     0.009929
 21 H s       :     0.958192  s :     0.958192
      pz      :     0.006145  p :     0.024434
      px      :     0.014423
      py      :     0.003866
 22 C s       :     2.873004  s :     2.873004
      pz      :     1.036376  p :     2.945976
      px      :     0.991418
      py      :     0.918181
      dz2     :     0.005490  d :     0.038586
      dxz     :     0.010236
      dyz     :     0.007932
      dx2y2   :     0.010426
      dxy     :     0.004502
 23 H s       :     0.983532  s :     0.983532
      pz      :     0.006473  p :     0.024535
      px      :     0.013280
      py      :     0.004782
 24 H s       :     0.962683  s :     0.962683
      pz      :     0.009511  p :     0.025094
      px      :     0.009993
      py      :     0.005591
 25 C s       :     3.081449  s :     3.081449
      pz      :     1.012238  p :     2.966719
      px      :     1.019491
      py      :     0.934990
      dz2     :     0.005557  d :     0.035131
      dxz     :     0.006101
      dyz     :     0.009502
      dx2y2   :     0.009353
      dxy     :     0.004618
 26 H s       :     0.939462  s :     0.939462
      pz      :     0.005001  p :     0.023667
      px      :     0.014225
      py      :     0.004441
 27 H s       :     0.945422  s :     0.945422
      pz      :     0.009436  p :     0.021895
      px      :     0.007344
      py      :     0.005115
 28 C s       :     3.016757  s :     3.016757
      pz      :     1.034993  p :     2.999192
      px      :     1.002913
      py      :     0.961286
      dz2     :     0.003797  d :     0.026275
      dxz     :     0.004678
      dyz     :     0.006565
      dx2y2   :     0.006547
      dxy     :     0.004688
 29 H s       :     0.948269  s :     0.948269
      pz      :     0.007122  p :     0.024709
      px      :     0.012912
      py      :     0.004675
 30 H s       :     0.932888  s :     0.932888
      pz      :     0.007745  p :     0.023984
      px      :     0.009325
      py      :     0.006914
 31 H s       :     0.946186  s :     0.946186
      pz      :     0.012011  p :     0.023770
      px      :     0.005472
      py      :     0.006287
 32 H s       :     0.940033  s :     0.940033
      pz      :     0.004193  p :     0.025686
      px      :     0.014061
      py      :     0.007432
 33 H s       :     0.930294  s :     0.930294
      pz      :     0.005655  p :     0.025728
      px      :     0.010438
      py      :     0.009635


                     *******************************
                     * LOEWDIN POPULATION ANALYSIS *
                     *******************************

----------------------
LOEWDIN ATOMIC CHARGES
----------------------
   0 S :    0.395780
   1 C :   -0.194365
   2 C :   -0.055646
   3 C :   -0.065619
   4 C :   -0.192102
   5 H :    0.053610
   6 C :   -0.030835
   7 H :    0.029235
   8 H :    0.028441
   9 C :   -0.051248
  10 H :    0.025837
  11 H :    0.028831
  12 C :   -0.065813
  13 H :    0.028272
  14 H :    0.027233
  15 H :    0.018570
  16 S :    0.383191
  17 C :   -0.174355
  18 C :   -0.075998
  19 C :   -0.046050
  20 C :   -0.193297
  21 H :    0.029309
  22 C :   -0.029663
  23 H :    0.020397
  24 H :    0.025920
  25 C :   -0.032039
  26 H :    0.026613
  27 H :    0.025515
  28 C :   -0.063102
  29 H :    0.019441
  30 H :    0.026797
  31 H :    0.029075
  32 H :    0.020041
  33 H :    0.028022

-------------------------------
LOEWDIN REDUCED ORBITAL CHARGES
-------------------------------
  0 S s       :     5.519860  s :     5.519860
      pz      :     3.361992  p :     9.957150
      px      :     3.042467
      py      :     3.552692
      dz2     :     0.013602  d :     0.127210
      dxz     :     0.053100
      dyz     :     0.015134
      dx2y2   :     0.023025
      dxy     :     0.022348
  1 C s       :     2.929759  s :     2.929759
      pz      :     1.048316  p :     3.186320
      px      :     1.037783
      py      :     1.100222
      dz2     :     0.020361  d :     0.078286
      dxz     :     0.027794
      dyz     :     0.014709
      dx2y2   :     0.007870
      dxy     :     0.007551
  2 C s       :     2.882752  s :     2.882752
      pz      :     1.049513  p :     3.075128
      px      :     1.030631
      py      :     0.994983
      dz2     :     0.029590  d :     0.097766
      dxz     :     0.027647
      dyz     :     0.014011
      dx2y2   :     0.014123
      dxy     :     0.012396
  3 C s       :     2.895205  s :     2.895205
      pz      :     1.055374  p :     3.087161
      px      :     1.028676
      py      :     1.003111
      dz2     :     0.020606  d :     0.083254
      dxz     :     0.029393
      dyz     :     0.010068
      dx2y2   :     0.011437
      dxy     :     0.011749
  4 C s       :     2.928809  s :     2.928809
      pz      :     1.045731  p :     3.165699
      px      :     1.040222
      py      :     1.079746
      dz2     :     0.021970  d :     0.097595
      dxz     :     0.035289
      dyz     :     0.017664
      dx2y2   :     0.010880
      dxy     :     0.011791
  5 H s       :     0.883657  s :     0.883657
      pz      :     0.026834  p :     0.062733
      px      :     0.021319
      py      :     0.014580
  6 C s       :     2.826286  s :     2.826286
      pz      :     1.026442  p :     3.113466
      px      :     1.033903
      py      :     1.053120
      dz2     :     0.010244  d :     0.091084
      dxz     :     0.023220
      dyz     :     0.025492
      dx2y2   :     0.014704
      dxy     :     0.017424
  7 H s       :     0.899892  s :     0.899892
      pz      :     0.028968  p :     0.070872
      px      :     0.017232
      py      :     0.024672
  8 H s       :     0.909577  s :     0.909577
      pz      :     0.015700  p :     0.061982
      px      :     0.028738
      py      :     0.017544
  9 C s       :     2.845508  s :     2.845508
      pz      :     1.048293  p :     3.117496
      px      :     1.033627
      py      :     1.035576
      dz2     :     0.006686  d :     0.088244
      dxz     :     0.022929
      dyz     :     0.024252
      dx2y2   :     0.023182
      dxy     :     0.011195
 10 H s       :     0.909914  s :     0.909914
      pz      :     0.022376  p :     0.064249
      px      :     0.027736
      py      :     0.014137
 11 H s       :     0.910123  s :     0.910123
      pz      :     0.023864  p :     0.061046
      px      :     0.011365
      py      :     0.025817
 12 C s       :     2.835404  s :     2.835404
      pz      :     1.049514  p :     3.161081
      px      :     1.040519
      py      :     1.071048
      dz2     :     0.007083  d :     0.069328
      dxz     :     0.017410
      dyz     :     0.019690
      dx2y2   :     0.015493
      dxy     :     0.009652
 13 H s       :     0.910804  s :     0.910804
      pz      :     0.027792  p :     0.060923
      px      :     0.012238
      py      :     0.020893
 14 H s       :     0.902794  s :     0.902794
      pz      :     0.019601  p :     0.069973
      px      :     0.014456
      py      :     0.035916
 15 H s       :     0.908565  s :     0.908565
      pz      :     0.022371  p :     0.072866
      px      :     0.030029
      py      :     0.020466
 16 S s       :     5.541584  s :     5.541584
      pz      :     3.630387  p :     9.955650
      px      :     3.135770
      py      :     3.189492
      dz2     :     0.013841  d :     0.119575
      dxz     :     0.019964
      dyz     :     0.015215
      dx2y2   :     0.055830
      dxy     :     0.014725
 17 C s       :     2.934265  s :     2.934265
      pz      :     1.057854  p :     3.161770
      px      :     1.004513
      py      :     1.099403
      dz2     :     0.006471  d :     0.078321
      dxz     :     0.009881
      dyz     :     0.009477
      dx2y2   :     0.027827
      dxy     :     0.024665
 18 C s       :     2.866215  s :     2.866215
      pz      :     1.017724  p :     3.118833
      px      :     1.044223
      py      :     1.056886
      dz2     :     0.006235  d :     0.090949
      dxz     :     0.007407
      dyz     :     0.014282
      dx2y2   :     0.033013
      dxy     :     0.030012
 19 C s       :     2.860033  s :     2.860033
      pz      :     0.965571  p :     3.075568
      px      :     1.059700
      py      :     1.050297
      dz2     :     0.008639  d :     0.110450
      dxz     :     0.017260
      dyz     :     0.013308
      dx2y2   :     0.030768
      dxy     :     0.040474
 20 C s       :     2.921197  s :     2.921197
      pz      :     1.123262  p :     3.175873
      px      :     1.069520
      py      :     0.983090
      dz2     :     0.007515  d :     0.096227
      dxz     :     0.012718
      dyz     :     0.009923
      dx2y2   :     0.039818
      dxy     :     0.026254
 21 H s       :     0.898231  s :     0.898231
      pz      :     0.018714  p :     0.072460
      px      :     0.040779
      py      :     0.012967
 22 C s       :     2.803821  s :     2.803821
      pz      :     1.059889  p :     3.128392
      px      :     1.062788
      py      :     1.005715
      dz2     :     0.013046  d :     0.097449
      dxz     :     0.024534
      dyz     :     0.021080
      dx2y2   :     0.028903
      dxy     :     0.009887
 23 H s       :     0.906884  s :     0.906884
      pz      :     0.020787  p :     0.072718
      px      :     0.036980
      py      :     0.014951
 24 H s       :     0.899507  s :     0.899507
      pz      :     0.028876  p :     0.074573
      px      :     0.027603
      py      :     0.018094
 25 C s       :     2.840590  s :     2.840590
      pz      :     1.049282  p :     3.106661
      px      :     1.062574
      py      :     0.994805
      dz2     :     0.013562  d :     0.084789
      dxz     :     0.014322
      dyz     :     0.023245
      dx2y2   :     0.023756
      dxy     :     0.009904
 26 H s       :     0.902804  s :     0.902804
      pz      :     0.015449  p :     0.070583
      px      :     0.040698
      py      :     0.014436
 27 H s       :     0.908457  s :     0.908457
      pz      :     0.028175  p :     0.066028
      px      :     0.021120
      py      :     0.016733
 28 C s       :     2.841272  s :     2.841272
      pz      :     1.083247  p :     3.156312
      px      :     1.061460
      py      :     1.011605
      dz2     :     0.009618  d :     0.065518
      dxz     :     0.012287
      dyz     :     0.015351
      dx2y2   :     0.017006
      dxy     :     0.011257
 29 H s       :     0.908719  s :     0.908719
      pz      :     0.019191  p :     0.071840
      px      :     0.037710
      py      :     0.014939
 30 H s       :     0.904810  s :     0.904810
      pz      :     0.020540  p :     0.068393
      px      :     0.026137
      py      :     0.021716
 31 H s       :     0.905146  s :     0.905146
      pz      :     0.033092  p :     0.065779
      px      :     0.013502
      py      :     0.019186
 32 H s       :     0.898576  s :     0.898576
      pz      :     0.014388  p :     0.081383
      px      :     0.042968
      py      :     0.024027
 33 H s       :     0.892382  s :     0.892382
      pz      :     0.018321  p :     0.079595
      px      :     0.033975
      py      :     0.027299


                      *****************************
                      * MAYER POPULATION ANALYSIS *
                      *****************************

  NA   - Mulliken gross atomic population
  ZA   - Total nuclear charge
  QA   - Mulliken gross atomic charge
  VA   - Mayer's total valence
  BVA  - Mayer's bonded valence
  FA   - Mayer's free valence

  ATOM       NA         ZA         QA         VA         BVA        FA
  0 S     15.8796    16.0000     0.1204     2.4799     2.4799    -0.0000
  1 C      6.0905     6.0000    -0.0905     3.8562     3.8562    -0.0000
  2 C      6.1094     6.0000    -0.1094     3.9964     3.9964    -0.0000
  3 C      5.9772     6.0000     0.0228     3.8870     3.8870    -0.0000
  4 C      6.1858     6.0000    -0.1858     3.9472     3.9472    -0.0000
  5 H      0.9447     1.0000     0.0553     1.0011     1.0011    -0.0000
  6 C      5.9025     6.0000     0.0975     3.9423     3.9423    -0.0000
  7 H      0.9684     1.0000     0.0316     0.9829     0.9829    -0.0000
  8 H      0.9848     1.0000     0.0152     0.9936     0.9936     0.0000
  9 C      6.1219     6.0000    -0.1219     4.0667     4.0667    -0.0000
 10 H      0.9690     1.0000     0.0310     0.9742     0.9742     0.0000
 11 H      0.9556     1.0000     0.0444     0.9813     0.9813    -0.0000
 12 C      6.0270     6.0000    -0.0270     3.9976     3.9976     0.0000
 13 H      0.9821     1.0000     0.0179     0.9845     0.9845     0.0000
 14 H      0.9580     1.0000     0.0420     0.9881     0.9881     0.0000
 15 H      0.9769     1.0000     0.0231     0.9929     0.9929     0.0000
 16 S     15.8899    16.0000     0.1101     2.4553     2.4553     0.0000
 17 C      6.0659     6.0000    -0.0659     3.8624     3.8624     0.0000
 18 C      6.0626     6.0000    -0.0626     3.9880     3.9880     0.0000
 19 C      6.0438     6.0000    -0.0438     4.0233     4.0233    -0.0000
 20 C      6.1909     6.0000    -0.1909     3.9154     3.9154     0.0000
 21 H      0.9826     1.0000     0.0174     0.9953     0.9953     0.0000
 22 C      5.8576     6.0000     0.1424     3.9220     3.9220    -0.0000
 23 H      1.0081     1.0000    -0.0081     0.9996     0.9996     0.0000
 24 H      0.9878     1.0000     0.0122     0.9966     0.9966     0.0000
 25 C      6.0833     6.0000    -0.0833     4.1027     4.1027     0.0000
 26 H      0.9631     1.0000     0.0369     0.9800     0.9800     0.0000
 27 H      0.9673     1.0000     0.0327     0.9783     0.9783    -0.0000
 28 C      6.0422     6.0000    -0.0422     3.9993     3.9993     0.0000
 29 H      0.9730     1.0000     0.0270     0.9913     0.9913     0.0000
 30 H      0.9569     1.0000     0.0431     0.9879     0.9879     0.0000
 31 H      0.9700     1.0000     0.0300     0.9856     0.9856     0.0000
 32 H      0.9657     1.0000     0.0343     1.0117     1.0117    -0.0000
 33 H      0.9560     1.0000     0.0440     1.0012     1.0012     0.0000

  Mayer bond orders larger than 0.100000
B(  0-S ,  1-C ) :   1.1497 B(  0-S ,  4-C ) :   1.1261 B(  1-C ,  2-C ) :   1.6064 
B(  1-C , 32-H ) :   0.9714 B(  2-C ,  3-C ) :   1.2095 B(  2-C ,  6-C ) :   1.0319 
B(  3-C ,  4-C ) :   1.5978 B(  3-C ,  5-H ) :   0.9763 B(  4-C , 20-C ) :   1.0504 
B(  6-C ,  7-H ) :   0.9388 B(  6-C ,  8-H ) :   0.9418 B(  6-C ,  9-C ) :   1.0500 
B(  9-C , 10-H ) :   0.9529 B(  9-C , 11-H ) :   0.9618 B(  9-C , 12-C ) :   1.0806 
B( 12-C , 13-H ) :   0.9711 B( 12-C , 14-H ) :   0.9762 B( 12-C , 15-H ) :   0.9769 
B( 16-S , 17-C ) :   1.1576 B( 16-S , 20-C ) :   1.1168 B( 17-C , 18-C ) :   1.6252 
B( 17-C , 20-C ) :   0.1014 B( 17-C , 33-H ) :   0.9610 B( 18-C , 19-C ) :   1.2555 
B( 18-C , 21-H ) :   0.9842 B( 19-C , 20-C ) :   1.5818 B( 19-C , 22-C ) :   1.0358 
B( 22-C , 23-H ) :   0.9236 B( 22-C , 24-H ) :   0.9182 B( 22-C , 25-C ) :   1.0742 
B( 25-C , 26-H ) :   0.9554 B( 25-C , 27-H ) :   0.9576 B( 25-C , 28-C ) :   1.0817 
B( 28-C , 29-H ) :   0.9763 B( 28-C , 30-H ) :   0.9773 B( 28-C , 31-H ) :   0.9764 


-------
TIMINGS
-------

Total SCF time: 0 days 0 hours 0 min 27 sec 

Total time                  ....      27.470 sec
Sum of individual times     ....      26.425 sec  ( 96.2%)

Fock matrix formation       ....      24.467 sec  ( 89.1%)
  XC integration            ....       1.863 sec  (  7.6% of F)
    Basis function eval.    ....       0.218 sec  ( 11.7% of XC)
    Density eval.           ....       0.150 sec  (  8.0% of XC)
    XC-Functional eval.     ....       0.184 sec  (  9.8% of XC)
    XC-Potential eval.      ....       0.180 sec  (  9.6% of XC)
Diagonalization             ....       0.128 sec  (  0.5%)
Density matrix formation    ....       0.019 sec  (  0.1%)
Population analysis         ....       0.069 sec  (  0.2%)
Initial guess               ....       0.197 sec  (  0.7%)
Orbital Transformation      ....       0.000 sec  (  0.0%)
Orbital Orthonormalization  ....       0.000 sec  (  0.0%)
DIIS solution               ....       0.157 sec  (  0.6%)
SOSCF solution              ....       0.125 sec  (  0.5%)
Grid generation             ....       1.264 sec  (  4.6%)


-------------------------------------------------------------------------------
                          DFT DISPERSION CORRECTION                            
                                                                               
                              DFTD3 V3.1  Rev 1                                
                              USING zero damping                               
-------------------------------------------------------------------------------
The omegaB97X-D3 functional is recognized. Fit by Chai et al.
Active option DFTDOPT                   ...         3   

molecular C6(AA) [au] = 14250.712307 


            DFT-D V3
 parameters
 s6 scaling factor         :     1.0000 
 rs6 scaling factor        :     1.2810 
 s8 scaling factor         :     1.0000 
 rs8 scaling factor        :     1.0940 
 Damping factor alpha6     :    14.0000 
 Damping factor alpha8     :    16.0000 
 ad hoc parameters k1-k3   :    16.0000     1.3333    -4.0000 

 Edisp/kcal,au: -8.797717273721  -0.014020053400 
 E6   /kcal   :  -3.948249983 
 E8   /kcal   :  -4.849467291 
 % E8         :  55.121881506 

-------------------------   ----------------
Dispersion correction           -0.014020053
-------------------------   ----------------


-------------------------   --------------------
FINAL SINGLE POINT ENERGY     -1339.862001692846
-------------------------   --------------------


                            ***************************************
                            *     ORCA property calculations      *
                            ***************************************

                                    ---------------------
                                    Active property flags
                                    ---------------------
   (+) Dipole Moment


------------------------------------------------------------------------------
                       ORCA ELECTRIC PROPERTIES CALCULATION
------------------------------------------------------------------------------

Dipole Moment Calculation                       ... on
Quadrupole Moment Calculation                   ... off
Polarizability Calculation                      ... off
GBWName                                         ... config_3005.gbw
Electron density file                           ... config_3005.scfp
The origin for moment calculation is the CENTER OF MASS  = (103.582960,  1.327884 152.281726)

-------------
DIPOLE MOMENT
-------------
                                X             Y             Z
Electronic contribution:      4.89754      13.72809     -14.47532
Nuclear contribution   :     -4.78133     -14.04634      14.82052
                        -----------------------------------------
Total Dipole Moment    :      0.11621      -0.31824       0.34520
                        -----------------------------------------
Magnitude (a.u.)       :      0.48368
Magnitude (Debye)      :      1.22942



--------------------
Rotational spectrum 
--------------------
 
Rotational constants in cm-1:     0.018327     0.007682     0.006492 
Rotational constants in MHz :   549.421718   230.288553   194.634336 

 Dipole components along the rotational axes: 
x,y,z [a.u.] :    -0.002966    -0.301950    -0.377841 
x,y,z [Debye]:    -0.007538    -0.767496    -0.960397 

 

Timings for individual modules:

Sum of individual times         ...       28.558 sec (=   0.476 min)
GTO integral calculation        ...        0.730 sec (=   0.012 min)   2.6 %
SCF iterations                  ...       27.828 sec (=   0.464 min)  97.4 %
                             ****ORCA TERMINATED NORMALLY****
TOTAL RUN TIME: 0 days 0 hours 0 minutes 29 seconds 338 msec
