
                                 *****************
                                 * O   R   C   A *
                                 *****************

           --- An Ab Initio, DFT and Semiempirical electronic structure package ---

                  #######################################################
                  #                        -***-                        #
                  #          Department of theory and spectroscopy      #
                  #               Directorship: Frank Neese             #
                  #        Max Planck Institute fuer Kohlenforschung    #
                  #                Kaiser Wilhelm Platz 1               #
                  #                 D-45470 Muelheim/Ruhr               #
                  #                      Germany                        #
                  #                                                     #
                  #                  All rights reserved                #
                  #                        -***-                        #
                  #######################################################


                         Program Version 4.2.1 -  RELEASE  -


 With contributions from (in alphabetic order):
   Daniel Aravena         : Magnetic Suceptibility
   Michael Atanasov       : Ab Initio Ligand Field Theory (pilot matlab implementation)
   Alexander A. Auer      : GIAO ZORA, VPT2
   Ute Becker             : Parallelization
   Giovanni Bistoni       : ED, misc. LED, open-shell LED, HFLD
   Martin Brehm           : Molecular dynamics
   Dmytro Bykov           : SCF Hessian
   Vijay G. Chilkuri      : MRCI spin determinant printing, contributions to CSF-ICE
   Dipayan Datta          : RHF DLPNO-CCSD density
   Achintya Kumar Dutta   : EOM-CC, STEOM-CC
   Dmitry Ganyushin       : Spin-Orbit,Spin-Spin,Magnetic field MRCI
   Miquel Garcia          : C-PCM Hessian, Gaussian charge scheme
   Yang Guo               : DLPNO-NEVPT2, CIM, IAO-localization
   Andreas Hansen         : Spin unrestricted coupled pair/coupled cluster methods
   Benjamin Helmich-Paris : CASSCF linear response (MC-RPA)
   Lee Huntington         : MR-EOM, pCC
   Robert Izsak           : Overlap fitted RIJCOSX, COSX-SCS-MP3, EOM
   Christian Kollmar      : KDIIS, OOCD, Brueckner-CCSD(T), CCSD density
   Simone Kossmann        : Meta GGA functionals, TD-DFT gradient, OOMP2, MP2 Hessian
   Martin Krupicka        : AUTO-CI
   Lucas Lang             : DCDCAS
   Dagmar Lenk            : GEPOL surface, SMD
   Dimitrios Liakos       : Extrapolation schemes; Compound Job, initial MDCI parallelization
   Dimitrios Manganas     : Further ROCIS development; embedding schemes
   Dimitrios Pantazis     : SARC Basis sets
   Taras Petrenko         : DFT Hessian,TD-DFT gradient, ASA, ECA, R-Raman, ABS, FL, XAS/XES, NRVS
   Peter Pinski           : DLPNO-MP2, DLPNO-MP2 Gradient
   Christoph Reimann      : Effective Core Potentials
   Marius Retegan         : Local ZFS, SOC
   Christoph Riplinger    : Optimizer, TS searches, QM/MM, DLPNO-CCSD(T), (RO)-DLPNO pert. Triples
   Tobias Risthaus        : Range-separated hybrids, TD-DFT gradient, RPA, STAB
   Michael Roemelt        : Original ROCIS implementation
   Masaaki Saitow         : Open-shell DLPNO-CCSD energy and density
   Barbara Sandhoefer     : DKH picture change effects
   Avijit Sen             : IP-ROCIS
   Kantharuban Sivalingam : CASSCF convergence, NEVPT2, FIC-MRCI
   Bernardo de Souza      : ESD, SOC TD-DFT
   Georgi Stoychev        : AutoAux, RI-MP2 NMR
   Willem Van den Heuvel  : Paramagnetic NMR
   Boris Wezisla          : Elementary symmetry handling
   Frank Wennmohs         : Technical directorship


 We gratefully acknowledge several colleagues who have allowed us to
 interface, adapt or use parts of their codes:
   Stefan Grimme, W. Hujo, H. Kruse,             : VdW corrections, initial TS optimization,
                  C. Bannwarth                     DFT functionals, gCP, sTDA/sTD-DF
   Ed Valeev, F. Pavosevic, A. Kumar             : LibInt (2-el integral package), F12 methods
   Garnet Chan, S. Sharma, J. Yang, R. Olivares  : DMRG
   Ulf Ekstrom                                   : XCFun DFT Library
   Mihaly Kallay                                 : mrcc  (arbitrary order and MRCC methods)
   Andreas Klamt, Michael Diedenhofen            : otool_cosmo (COSMO solvation model)
   Jiri Pittner, Ondrej Demel                    : Mk-CCSD
   Frank Weinhold                                : gennbo (NPA and NBO analysis)
   Christopher J. Cramer and Donald G. Truhlar   : smd solvation model
   Lars Goerigk                                  : TD-DFT with DH, B97 family of functionals
   V. Asgeirsson, H. Jonsson                     : NEB implementation
   FAccTs GmbH                                   : IRC, NEB, NEB-TS, Multilevel, MM, QM/MM, CI optimization
   S Lehtola, MJT Oliveira, MAL Marques          : LibXC Library


 Your calculation uses the libint2 library for the computation of 2-el integrals
 For citations please refer to: http://libint.valeyev.net

 Your ORCA version has been built with support for libXC version: 4.2.3
 For citations please refer to: https://tddft.org/programs/libxc/

 This ORCA versions uses:
   CBLAS   interface :  Fast vector & matrix operations
   LAPACKE interface :  Fast linear algebra routines
   SCALAPACK package :  Parallel linear algebra routines


Your calculation utilizes the atom-pairwise dispersion correction
with the zero-damping scheme (D30)
Cite in your paper:
S.Grimme, J.Antony, S.Ehrlich and H.Krieg, J.Chem.Phys., 132, (2010), 154104 
   

XCFun DFT library Copyright 2009-2010 Ulf Ekstrom and contributors.
See http://admol.org/xcfun for more information. This is free soft-
ware; see the source code for copying conditions. There is ABSOLUTELY
NO WARRANTY; not even for MERCHANTABILITY or FITNESS FOR A PARTICULAR
PURPOSE. For details see the documentation. Scientific users of this 
library should cite U. Ekstrom, L. Visscher, R. Bast, A. J. Thorvald-
sen and K. Ruud; J.Chem.Theor.Comp. 2010, DOI: 10.1021/ct100117s
XCFun Version 0.99 
----- Orbital basis set information -----
Your calculation utilizes the basis: def2-SVP
   F. Weigend and R. Ahlrichs, Phys. Chem. Chem. Phys. 7, 3297 (2005).

================================================================================
                                        WARNINGS
                       Please study these warnings very carefully!
================================================================================


INFO   : the flag for use of LIBINT has been found!

================================================================================
                                       INPUT FILE
================================================================================
NAME = config_5319.inp
|  1> ! wB97X-D3 SP def2-SVP
|  2> %pal
|  3> nprocs 16
|  4> end
|  5> 
|  6> * xyz 0 1
|  7> S 	 -3.28878 	 -11.8044 	 87.4762 	 
|  8> C 	 -3.32069 	 -13.09 	 88.7376 	 
|  9> C 	 -3.09502 	 -12.5629 	 90.0095 	 
| 10> C 	 -2.73904 	 -11.1947 	 89.9565 	 
| 11> C 	 -2.82163 	 -10.6388 	 88.6669 	 
| 12> H 	 -2.54605 	 -10.5754 	 90.8192 	 
| 13> C 	 -3.12618 	 -13.3102 	 91.3436 	 
| 14> H 	 -3.54162 	 -14.3559 	 91.1275 	 
| 15> H 	 -3.81897 	 -12.7851 	 92.0345 	 
| 16> C 	 -1.7571 	 -13.5643 	 92.0162 	 
| 17> H 	 -1.15577 	 -14.315 	 91.5348 	 
| 18> H 	 -1.18579 	 -12.6158 	 91.977 	 
| 19> C 	 -1.91152 	 -13.929 	 93.51 	 
| 20> H 	 -2.33926 	 -14.9174 	 93.6996 	 
| 21> H 	 -0.956284 	 -14.0163 	 93.9755 	 
| 22> H 	 -2.54415 	 -13.1629 	 93.9905 	 
| 23> S 	 -1.328 	 -8.76102 	 87.3432 	 
| 24> C 	 -1.91235 	 -7.13334 	 87.1935 	 
| 25> C 	 -3.20122 	 -7.01746 	 87.5941 	 
| 26> C 	 -3.65085 	 -8.16468 	 88.2777 	 
| 27> C 	 -2.71237 	 -9.21709 	 88.2823 	 
| 28> H 	 -3.76101 	 -6.07138 	 87.3672 	 
| 29> C 	 -5.04515 	 -8.22991 	 88.8944 	 
| 30> H 	 -5.40861 	 -7.2677 	 88.9978 	 
| 31> H 	 -4.86291 	 -8.55782 	 89.9301 	 
| 32> C 	 -6.01939 	 -9.03776 	 88.1443 	 
| 33> H 	 -5.6599 	 -10.0291 	 87.9384 	 
| 34> H 	 -6.19316 	 -8.58349 	 87.1767 	 
| 35> C 	 -7.39017 	 -9.2746 	 88.8212 	 
| 36> H 	 -8.03806 	 -9.88641 	 88.2132 	 
| 37> H 	 -7.98723 	 -8.32035 	 89.0746 	 
| 38> H 	 -7.23566 	 -9.77882 	 89.7462 	 
| 39> H 	 -3.39695 	 -14.2011 	 88.6099 	 
| 40> H 	 -1.36926 	 -6.42136 	 86.6318 	 
| 41> *
| 42> 
| 43>                          ****END OF INPUT****
================================================================================

                       ****************************
                       * Single Point Calculation *
                       ****************************

---------------------------------
CARTESIAN COORDINATES (ANGSTROEM)
---------------------------------
  S     -3.288780  -11.804400   87.476200
  C     -3.320690  -13.090000   88.737600
  C     -3.095020  -12.562900   90.009500
  C     -2.739040  -11.194700   89.956500
  C     -2.821630  -10.638800   88.666900
  H     -2.546050  -10.575400   90.819200
  C     -3.126180  -13.310200   91.343600
  H     -3.541620  -14.355900   91.127500
  H     -3.818970  -12.785100   92.034500
  C     -1.757100  -13.564300   92.016200
  H     -1.155770  -14.315000   91.534800
  H     -1.185790  -12.615800   91.977000
  C     -1.911520  -13.929000   93.510000
  H     -2.339260  -14.917400   93.699600
  H     -0.956284  -14.016300   93.975500
  H     -2.544150  -13.162900   93.990500
  S     -1.328000   -8.761020   87.343200
  C     -1.912350   -7.133340   87.193500
  C     -3.201220   -7.017460   87.594100
  C     -3.650850   -8.164680   88.277700
  C     -2.712370   -9.217090   88.282300
  H     -3.761010   -6.071380   87.367200
  C     -5.045150   -8.229910   88.894400
  H     -5.408610   -7.267700   88.997800
  H     -4.862910   -8.557820   89.930100
  C     -6.019390   -9.037760   88.144300
  H     -5.659900  -10.029100   87.938400
  H     -6.193160   -8.583490   87.176700
  C     -7.390170   -9.274600   88.821200
  H     -8.038060   -9.886410   88.213200
  H     -7.987230   -8.320350   89.074600
  H     -7.235660   -9.778820   89.746200
  H     -3.396950  -14.201100   88.609900
  H     -1.369260   -6.421360   86.631800

----------------------------
CARTESIAN COORDINATES (A.U.)
----------------------------
  NO LB      ZA    FRAG     MASS         X           Y           Z
   0 S    16.0000    0    32.060   -6.214894  -22.307083  165.306061
   1 C     6.0000    0    12.011   -6.275195  -24.736515  167.689762
   2 C     6.0000    0    12.011   -5.848740  -23.740440  170.093304
   3 C     6.0000    0    12.011   -5.176035  -21.154917  169.993149
   4 C     6.0000    0    12.011   -5.332108  -20.104418  167.556158
   5 H     1.0000    0     1.008   -4.811337  -19.984610  171.623416
   6 C     6.0000    0    12.011   -5.907624  -25.152633  172.614388
   7 H     1.0000    0     1.008   -6.692692  -27.128719  172.206018
   8 H     1.0000    0     1.008   -7.216807  -24.160338  173.920000
   9 C     6.0000    0    12.011   -3.320438  -25.632812  173.885418
  10 H     1.0000    0     1.008   -2.184089  -27.051430  172.975704
  11 H     1.0000    0     1.008   -2.240818  -23.840407  173.811341
  12 C     6.0000    0    12.011   -3.612249  -26.321995  176.708291
  13 H     1.0000    0     1.008   -4.420561  -28.189801  177.066583
  14 H     1.0000    0     1.008   -1.807115  -26.486968  177.587958
  15 H     1.0000    0     1.008   -4.807747  -24.874276  177.616304
  16 S    16.0000    0    32.060   -2.509556  -16.555928  165.054728
  17 C     6.0000    0    12.011   -3.613818  -13.480059  164.771836
  18 C     6.0000    0    12.011   -6.049429  -13.261078  165.528860
  19 C     6.0000    0    12.011   -6.899107  -15.429009  166.820677
  20 C     6.0000    0    12.011   -5.125636  -17.417776  166.829369
  21 H     1.0000    0     1.008   -7.107279  -11.473245  165.100081
  22 C     6.0000    0    12.011   -9.533952  -15.552276  167.986071
  23 H     1.0000    0     1.008  -10.220792  -13.733963  168.181469
  24 H     1.0000    0     1.008   -9.189568  -16.171936  169.943260
  25 C     6.0000    0    12.011  -11.374999  -17.078891  166.568587
  26 H     1.0000    0     1.008  -10.695661  -18.952252  166.179493
  27 H     1.0000    0     1.008  -11.703376  -16.220445  164.740088
  28 C     6.0000    0    12.011  -13.965397  -17.526454  167.847743
  29 H     1.0000    0     1.008  -15.189732  -18.682607  166.698789
  30 H     1.0000    0     1.008  -15.093677  -15.723183  168.326599
  31 H     1.0000    0     1.008  -13.673416  -18.479292  169.595740
  32 H     1.0000    0     1.008   -6.419305  -26.836190  167.448444
  33 H     1.0000    0     1.008   -2.587526  -12.134612  163.710376

--------------------------------
INTERNAL COORDINATES (ANGSTROEM)
--------------------------------
 S      0   0   0     0.000000000000     0.00000000     0.00000000
 C      1   0   0     1.801364918083     0.00000000     0.00000000
 C      2   1   0     1.395167003946   111.46180733     0.00000000
 C      3   2   1     1.414744500042   111.83420346   352.73846073
 C      4   3   2     1.406738809481   113.68692046     6.03549895
 H      4   3   2     1.079365054141   124.74561587   178.19912463
 C      3   2   1     1.529461031083   127.39516622   176.10160497
 H      7   3   2     1.145765287308   106.78625106   350.78346146
 H      7   3   2     1.110419201968   108.92806405   233.40952910
 C      7   3   2     1.546395038921   116.20853385   107.08674647
 H     10   7   3     1.075590172370   114.51810016   287.39554136
 H     10   7   3     1.107963901082   107.48510134    46.19552205
 C     10   7   3     1.545409352372   111.76093730   162.97650891
 H     13  10   7     1.093546627995   114.83291209    70.73679517
 H     13  10   7     1.066202305239   110.59845810   184.95551355
 H     13  10   7     1.103634983543   108.31873709   308.48843129
 S      5   4   3     2.740286480516   132.97011868   215.70444024
 C     17   5   4     1.735862089827   120.04730638   258.33440806
 C     18  17   5     1.354656565813   112.02393321   350.13824654
 C     19  18  17     1.409109585980   112.17341672    12.11356881
 C     20  19  18     1.410082507692   113.38128490   354.35624207
 H     19  18  17     1.122459718876   119.13175041   191.64335044
 C     20  19  18     1.525990279425   121.49394508   176.33488928
 H     23  20  19     1.033751815331   108.77703872   341.42177191
 H     23  20  19     1.101549306976   103.97713448   231.10826954
 C     23  20  19     1.471195163838   114.99160156   104.25471787
 H     26  23  20     1.074422107786   112.50660165    52.86944811
 H     26  23  20     1.082962144214   109.35780512   295.81946591
 C     26  23  20     1.547037363479   116.59888129   172.66350399
 H     29  26  23     1.078766391857   111.86241998   180.84797379
 H     29  26  23     1.153813358434   115.34010028    59.09490787
 H     29  26  23     1.064770467519   108.90673246   300.08714291
 H      2   1   3     1.121011189775   128.96220648   186.21971149
 H     18  17   5     1.057056837876   120.29447581   183.88383034

---------------------------
INTERNAL COORDINATES (A.U.)
---------------------------
 S      0   0   0     0.000000000000     0.00000000     0.00000000
 C      1   0   0     3.404086362430     0.00000000     0.00000000
 C      2   1   0     2.636483548542   111.46180733     0.00000000
 C      3   2   1     2.673479654551   111.83420346   352.73846073
 C      4   3   2     2.658351091878   113.68692046     6.03549895
 H      4   3   2     2.039704350851   124.74561587   178.19912463
 C      3   2   1     2.890262481251   127.39516622   176.10160497
 H      7   3   2     2.165182606766   106.78625106   350.78346146
 H      7   3   2     2.098388185568   108.92806405   233.40952910
 C      7   3   2     2.922263118416   116.20853385   107.08674647
 H     10   7   3     2.032570858117   114.51810016   287.39554136
 H     10   7   3     2.093748339315   107.48510134    46.19552205
 C     10   7   3     2.920400440784   111.76093730   162.97650891
 H     13  10   7     2.066503641584   114.83291209    70.73679517
 H     13  10   7     2.014830360256   110.59845810   184.95551355
 H     13  10   7     2.085567870711   108.31873709   308.48843129
 S      5   4   3     5.178390976663   132.97011868   215.70444024
 C     17   5   4     3.280303956030   120.04730638   258.33440806
 C     18  17   5     2.559929914905   112.02393321   350.13824654
 C     19  18  17     2.662831210185   112.17341672    12.11356881
 C     20  19  18     2.664669765771   113.38128490   354.35624207
 H     19  18  17     2.121141465035   119.13175041   191.64335044
 C     20  19  18     2.883703711139   121.49394508   176.33488928
 H     23  20  19     1.953507821419   108.77703872   341.42177191
 H     23  20  19     2.081626513196   103.97713448   231.10826954
 C     23  20  19     2.780155949203   114.99160156   104.25471787
 H     26  23  20     2.030363535947   112.50660165    52.86944811
 H     26  23  20     2.046501865968   109.35780512   295.81946591
 C     26  23  20     2.923476935919   116.59888129   172.66350399
 H     29  26  23     2.038573043088   111.86241998   180.84797379
 H     29  26  23     2.180391257100   115.34010028    59.09490787
 H     29  26  23     2.012124579098   108.90673246   300.08714291
 H      2   1   3     2.118404141735   128.96220648   186.21971149
 H     18  17   5     1.997547931574   120.29447581   183.88383034

---------------------
BASIS SET INFORMATION
---------------------
There are 3 groups of distinct atoms

 Group   1 Type S   : 10s7p1d contracted to 4s3p1d pattern {5311/511/1}
 Group   2 Type C   : 7s4p1d contracted to 3s2p1d pattern {511/31/1}
 Group   3 Type H   : 4s1p contracted to 2s1p pattern {31/1}

Atom   0S    basis set group =>   1
Atom   1C    basis set group =>   2
Atom   2C    basis set group =>   2
Atom   3C    basis set group =>   2
Atom   4C    basis set group =>   2
Atom   5H    basis set group =>   3
Atom   6C    basis set group =>   2
Atom   7H    basis set group =>   3
Atom   8H    basis set group =>   3
Atom   9C    basis set group =>   2
Atom  10H    basis set group =>   3
Atom  11H    basis set group =>   3
Atom  12C    basis set group =>   2
Atom  13H    basis set group =>   3
Atom  14H    basis set group =>   3
Atom  15H    basis set group =>   3
Atom  16S    basis set group =>   1
Atom  17C    basis set group =>   2
Atom  18C    basis set group =>   2
Atom  19C    basis set group =>   2
Atom  20C    basis set group =>   2
Atom  21H    basis set group =>   3
Atom  22C    basis set group =>   2
Atom  23H    basis set group =>   3
Atom  24H    basis set group =>   3
Atom  25C    basis set group =>   2
Atom  26H    basis set group =>   3
Atom  27H    basis set group =>   3
Atom  28C    basis set group =>   2
Atom  29H    basis set group =>   3
Atom  30H    basis set group =>   3
Atom  31H    basis set group =>   3
Atom  32H    basis set group =>   3
Atom  33H    basis set group =>   3


           ************************************************************
           *        Program running with 16 parallel MPI-processes    *
           *              working on a common directory               *
           ************************************************************
------------------------------------------------------------------------------
                           ORCA GTO INTEGRAL CALCULATION
------------------------------------------------------------------------------

                         BASIS SET STATISTICS AND STARTUP INFO

 # of primitive gaussian shells          ...  294
 # of primitive gaussian functions       ...  534
 # of contracted shells                  ...  154
 # of contracted basis functions         ...  322
 Highest angular momentum                ...    2
 Maximum contraction depth               ...    5
 Integral package used                   ... LIBINT
 Integral threshhold            Thresh   ...  1.000e-10
 Primitive cut-off              TCut     ...  1.000e-11


------------------------------ INTEGRAL EVALUATION ----------------------------


 * One electron integrals 
 Pre-screening matrix                    ... done
 Shell pair data                         ... done (   0.003 sec)



           ************************************************************
           *        Program running with 16 parallel MPI-processes    *
           *              working on a common directory               *
           ************************************************************
-------------------------------------------------------------------------------
                                 ORCA SCF
-------------------------------------------------------------------------------

------------
SCF SETTINGS
------------
Hamiltonian:
 Density Functional     Method          .... DFT(GTOs)
 Exchange Functional    Exchange        .... WB97X-D3
 Correlation Functional Correlation     .... WB97X-D3
 Gradients option       PostSCFGGA      .... off
 Hybrid DFT is turned on
   Fraction HF Exchange ScalHFX         ....  0.195728
   Scaling of DF-GGA-X  ScalDFX         ....  0.000000
   Scaling of DF-GGA-C  ScalDFC         ....  1.000000
   Scaling of DF-LDA-C  ScalLDAC        ....  1.000000
   Perturbative correction              ....  0.000000
   Density functional embedding theory  .... OFF
 Long-range corrected/Screened/Range-Separated Hybrid DFT is turned on
   Amount of maximum screened exact exchange              ....  0.804272
   Range separation parameter mu (erf(mu*r12)/r12)        ....  0.250000


General Settings:
 Integral files         IntName         .... config_5319
 Hartree-Fock type      HFTyp           .... RHF
 Total Charge           Charge          ....    0
 Multiplicity           Mult            ....    1
 Number of Electrons    NEL             ....  134
 Basis Dimension        Dim             ....  322
 Nuclear Repulsion      ENuc            ....   1280.5900695039 Eh

Convergence Acceleration:
 DIIS                   CNVDIIS         .... on
   Start iteration      DIISMaxIt       ....    12
   Startup error        DIISStart       ....  0.200000
   # of expansion vecs  DIISMaxEq       ....     5
   Bias factor          DIISBfac        ....   1.050
   Max. coefficient     DIISMaxC        ....  10.000
 Newton-Raphson         CNVNR           .... off
 SOSCF                  CNVSOSCF        .... on
   Start iteration      SOSCFMaxIt      ....   150
   Startup grad/error   SOSCFStart      ....  0.003300
 Level Shifting         CNVShift        .... on
   Level shift para.    LevelShift      ....    0.2500
   Turn off err/grad.   ShiftErr        ....    0.0010
 Zerner damping         CNVZerner       .... off
 Static damping         CNVDamp         .... on
   Fraction old density DampFac         ....    0.7000
   Max. Damping (<1)    DampMax         ....    0.9800
   Min. Damping (>=0)   DampMin         ....    0.0000
   Turn off err/grad.   DampErr         ....    0.1000
 Fernandez-Rico         CNVRico         .... off

SCF Procedure:
 Maximum # iterations   MaxIter         ....   125
 SCF integral mode      SCFMode         .... Direct
   Integral package                     .... LIBINT
 Reset frequency        DirectResetFreq ....    20
 Integral Threshold     Thresh          ....  1.000e-10 Eh
 Primitive CutOff       TCut            ....  1.000e-11 Eh

Convergence Tolerance:
 Convergence Check Mode ConvCheckMode   .... Total+1el-Energy
 Convergence forced     ConvForced      .... 0
 Energy Change          TolE            ....  1.000e-06 Eh
 1-El. energy change                    ....  1.000e-03 Eh
 Orbital Gradient       TolG            ....  5.000e-05
 Orbital Rotation angle TolX            ....  5.000e-05
 DIIS Error             TolErr          ....  1.000e-06


Diagonalization of the overlap matrix:
Smallest eigenvalue                        ... 5.863e-04
Time for diagonalization                   ...    0.017 sec
Threshold for overlap eigenvalues          ... 1.000e-08
Number of eigenvalues below threshold      ... 0
Time for construction of square roots      ...    0.027 sec
Total time needed                          ...    0.044 sec

-------------------
DFT GRID GENERATION
-------------------

General Integration Accuracy     IntAcc      ...  4.340
Radial Grid Type                 RadialGrid  ... Gauss-Chebyshev
Angular Grid (max. acc.)         AngularGrid ... Lebedev-110
Angular grid pruning method      GridPruning ... 3 (G Style)
Weight generation scheme         WeightScheme... Becke
Basis function cutoff            BFCut       ...    1.0000e-10
Integration weight cutoff        WCut        ...    1.0000e-14
Grids for H and He will be reduced by one unit

# of grid points (after initial pruning)     ...  41088 (   0.0 sec)
# of grid points (after weights+screening)   ...  37053 (   0.0 sec)
nearest neighbour list constructed           ...    0.0 sec
Grid point re-assignment to atoms done       ...    0.0 sec
Grid point division into batches done        ...    0.0 sec
Reduced shell lists constructed in    0.1 sec

Total number of grid points                  ...    37053
Total number of batches                      ...      598
Average number of points per batch           ...       61
Average number of grid points per atom       ...     1090
Average number of shells per batch           ...    81.21 (52.73%)
Average number of basis functions per batch  ...   160.49 (49.84%)
Average number of large shells per batch     ...    52.67 (64.86%)
Average number of large basis fcns per batch ...   107.08 (66.72%)
Maximum spatial batch extension              ...  14.52, 12.03, 12.78 au
Average spatial batch extension              ...   0.21,  0.19,  0.22 au

Time for grid setup =    0.165 sec

------------------------------
INITIAL GUESS: MODEL POTENTIAL
------------------------------
Loading Hartree-Fock densities                     ... done
Calculating cut-offs                               ... done
Setting up the integral package                    ... done
Initializing the effective Hamiltonian             ... done
Starting the Coulomb interaction                   ... done (   0.0 sec)
Reading the grid                                   ... done
Mapping shells                                     ... done
Starting the XC term evaluation                    ... done (   0.0 sec)
  promolecular density results
     # of electrons  =    133.986395400
     EX              =   -126.709446129
     EC              =     -4.615216385
     EX+EC           =   -131.324662514
Transforming the Hamiltonian                       ... done (   0.0 sec)
Diagonalizing the Hamiltonian                      ... done (   0.0 sec)
Back transforming the eigenvectors                 ... done (   0.0 sec)
Now organizing SCF variables                       ... done
                      ------------------
                      INITIAL GUESS DONE (   0.3 sec)
                      ------------------
--------------
SCF ITERATIONS
--------------
ITER       Energy         Delta-E        Max-DP      RMS-DP      [F,P]     Damp
               ***  Starting incremental Fock matrix formation  ***
  0  -1339.4248070672   0.000000000000 0.06516314  0.00158205  0.1608640 0.7000
  1  -1339.6144314443  -0.189624377132 0.04379447  0.00115957  0.0975347 0.7000
                               ***Turning on DIIS***
  2  -1339.7067006141  -0.092269169789 0.09057057  0.00219411  0.0508578 0.0000
  3  -1339.8456329320  -0.138932317904 0.04460697  0.00097347  0.0439992 0.0000
  4  -1339.8754917031  -0.029858771082 0.00773921  0.00021042  0.0078151 0.0000
                      *** Initiating the SOSCF procedure ***
                           *** Shutting down DIIS ***
                      *** Re-Reading the Fockian *** 
                      *** Removing any level shift *** 
ITER      Energy       Delta-E        Grad      Rot      Max-DP    RMS-DP
  5  -1339.87644986  -0.0009581538  0.001519  0.001519  0.003711  0.000103
               *** Restarting incremental Fock matrix formation ***
  6  -1339.87664298  -0.0001931199  0.001236  0.003320  0.002499  0.000067
  7  -1339.87670391  -0.0000609375  0.000882  0.004933  0.003647  0.000068
  8  -1339.87672120  -0.0000172873  0.000372  0.000754  0.000866  0.000023
  9  -1339.87672633  -0.0000051240  0.000167  0.000394  0.000387  0.000009
 10  -1339.87672693  -0.0000006087  0.000075  0.000262  0.000179  0.000004
                 **** Energy Check signals convergence ****
              ***Rediagonalizing the Fockian in SOSCF/NRSCF***

               *****************************************************
               *                     SUCCESS                       *
               *           SCF CONVERGED AFTER  11 CYCLES          *
               *****************************************************

Setting up the final grid:

General Integration Accuracy     IntAcc      ...  4.670
Radial Grid Type                 RadialGrid  ... Gauss-Chebyshev
Angular Grid (max. acc.)         AngularGrid ... Lebedev-302
Angular grid pruning method      GridPruning ... 3 (G Style)
Weight generation scheme         WeightScheme... Becke
Basis function cutoff            BFCut       ...    1.0000e-10
Integration weight cutoff        WCut        ...    1.0000e-14
Grids for H and He will be reduced by one unit

# of grid points (after initial pruning)     ... 161752 (   0.0 sec)
# of grid points (after weights+screening)   ... 143067 (   0.2 sec)
nearest neighbour list constructed           ...    0.0 sec
Grid point re-assignment to atoms done       ...    0.0 sec
Grid point division into batches done        ...    0.5 sec
Reduced shell lists constructed in    0.6 sec

Total number of grid points                  ...   143067
Total number of batches                      ...     2254
Average number of points per batch           ...       63
Average number of grid points per atom       ...     4208
Average number of shells per batch           ...    74.45 (48.34%)
Average number of basis functions per batch  ...   145.76 (45.27%)
Average number of large shells per batch     ...    46.95 (63.06%)
Average number of large basis fcns per batch ...    94.89 (65.10%)
Maximum spatial batch extension              ...  13.63, 11.51, 14.94 au
Average spatial batch extension              ...   0.13,  0.12,  0.12 au

Final grid set up in    1.0 sec
Final integration                            ... done (   0.5 sec)
Change in XC energy                          ...     0.006962798
Integrated number of electrons               ...   133.999949135
Previous integrated no of electrons          ...   133.997589598

----------------
TOTAL SCF ENERGY
----------------

Total Energy       :        -1339.86976437 Eh          -36459.70986 eV

Components:
Nuclear Repulsion  :         1280.59006950 Eh           34846.62736 eV
Electronic Energy  :        -2620.45983387 Eh          -71306.33722 eV
One Electron Energy:        -4377.88698180 Eh         -119128.36114 eV
Two Electron Energy:         1757.42714793 Eh           47822.02392 eV

Virial components:
Potential Energy   :        -2671.32438285 Eh          -72690.43197 eV
Kinetic Energy     :         1331.45461848 Eh           36230.72210 eV
Virial Ratio       :            2.00632026


DFT components:
N(Alpha)           :       66.999974567607 electrons
N(Beta)            :       66.999974567607 electrons
N(Total)           :      133.999949135215 electrons
E(XC)              :      -94.243539681834 Eh       
DFET-embed. en.    :        0.000000000000 Eh       

---------------
SCF CONVERGENCE
---------------

  Last Energy change         ...   -2.2911e-07  Tolerance :   1.0000e-06
  Last MAX-Density change    ...    3.1983e-05  Tolerance :   1.0000e-05
  Last RMS-Density change    ...    6.7882e-07  Tolerance :   1.0000e-06
  Last Orbital Gradient      ...    5.6824e-06  Tolerance :   5.0000e-05
  Last Orbital Rotation      ...    1.6698e-05  Tolerance :   5.0000e-05

             **** THE GBW FILE WAS UPDATED (config_5319.gbw) ****
             **** DENSITY FILE WAS UPDATED (config_5319.scfp) ****
             **** ENERGY FILE WAS UPDATED (config_5319.en.tmp) ****
             **** THE GBW FILE WAS UPDATED (config_5319.gbw) ****
             **** DENSITY FILE WAS UPDATED (config_5319.scfp) ****
----------------
ORBITAL ENERGIES
----------------

  NO   OCC          E(Eh)            E(eV) 
   0   2.0000     -88.972429     -2421.0629 
   1   2.0000     -88.963202     -2420.8118 
   2   2.0000     -10.332051      -281.1494 
   3   2.0000     -10.324731      -280.9502 
   4   2.0000     -10.322153      -280.8801 
   5   2.0000     -10.310300      -280.5575 
   6   2.0000     -10.303688      -280.3776 
   7   2.0000     -10.303441      -280.3709 
   8   2.0000     -10.303039      -280.3600 
   9   2.0000     -10.294884      -280.1380 
  10   2.0000     -10.293267      -280.0940 
  11   2.0000     -10.289509      -279.9918 
  12   2.0000     -10.279644      -279.7233 
  13   2.0000     -10.278780      -279.6998 
  14   2.0000     -10.275843      -279.6199 
  15   2.0000     -10.274459      -279.5822 
  16   2.0000      -8.085845      -220.0270 
  17   2.0000      -8.078708      -219.8328 
  18   2.0000      -6.044445      -164.4777 
  19   2.0000      -6.040457      -164.3692 
  20   2.0000      -6.036999      -164.2751 
  21   2.0000      -6.036641      -164.2654 
  22   2.0000      -6.033119      -164.1695 
  23   2.0000      -6.029642      -164.0749 
  24   2.0000      -1.007221       -27.4079 
  25   2.0000      -0.983668       -26.7670 
  26   2.0000      -0.912658       -24.8347 
  27   2.0000      -0.909054       -24.7366 
  28   2.0000      -0.868230       -23.6257 
  29   2.0000      -0.847788       -23.0695 
  30   2.0000      -0.845885       -23.0177 
  31   2.0000      -0.811549       -22.0834 
  32   2.0000      -0.782704       -21.2984 
  33   2.0000      -0.770774       -20.9738 
  34   2.0000      -0.705657       -19.2019 
  35   2.0000      -0.697435       -18.9782 
  36   2.0000      -0.691667       -18.8212 
  37   2.0000      -0.660010       -17.9598 
  38   2.0000      -0.635425       -17.2908 
  39   2.0000      -0.619526       -16.8582 
  40   2.0000      -0.597440       -16.2572 
  41   2.0000      -0.572480       -15.5780 
  42   2.0000      -0.566387       -15.4122 
  43   2.0000      -0.557009       -15.1570 
  44   2.0000      -0.526330       -14.3222 
  45   2.0000      -0.521570       -14.1926 
  46   2.0000      -0.514171       -13.9913 
  47   2.0000      -0.507553       -13.8112 
  48   2.0000      -0.502822       -13.6825 
  49   2.0000      -0.496555       -13.5120 
  50   2.0000      -0.494128       -13.4459 
  51   2.0000      -0.478320       -13.0157 
  52   2.0000      -0.469177       -12.7670 
  53   2.0000      -0.461553       -12.5595 
  54   2.0000      -0.458094       -12.4654 
  55   2.0000      -0.451418       -12.2837 
  56   2.0000      -0.446194       -12.1415 
  57   2.0000      -0.443967       -12.0810 
  58   2.0000      -0.436496       -11.8777 
  59   2.0000      -0.426646       -11.6096 
  60   2.0000      -0.416438       -11.3318 
  61   2.0000      -0.412639       -11.2285 
  62   2.0000      -0.411229       -11.1901 
  63   2.0000      -0.338810        -9.2195 
  64   2.0000      -0.332672        -9.0525 
  65   2.0000      -0.320504        -8.7214 
  66   2.0000      -0.306205        -8.3323 
  67   0.0000       0.039552         1.0763 
  68   0.0000       0.052345         1.4244 
  69   0.0000       0.108981         2.9655 
  70   0.0000       0.120131         3.2689 
  71   0.0000       0.131130         3.5682 
  72   0.0000       0.136607         3.7173 
  73   0.0000       0.147896         4.0245 
  74   0.0000       0.157191         4.2774 
  75   0.0000       0.165095         4.4925 
  76   0.0000       0.165989         4.5168 
  77   0.0000       0.175009         4.7622 
  78   0.0000       0.189882         5.1670 
  79   0.0000       0.198441         5.3999 
  80   0.0000       0.201345         5.4789 
  81   0.0000       0.207395         5.6435 
  82   0.0000       0.212839         5.7916 
  83   0.0000       0.214045         5.8245 
  84   0.0000       0.226311         6.1582 
  85   0.0000       0.236709         6.4412 
  86   0.0000       0.239720         6.5231 
  87   0.0000       0.242396         6.5959 
  88   0.0000       0.246681         6.7125 
  89   0.0000       0.250456         6.8152 
  90   0.0000       0.251888         6.8542 
  91   0.0000       0.255808         6.9609 
  92   0.0000       0.262973         7.1559 
  93   0.0000       0.301600         8.2070 
  94   0.0000       0.310861         8.4590 
  95   0.0000       0.316179         8.6037 
  96   0.0000       0.323178         8.7941 
  97   0.0000       0.330796         9.0014 
  98   0.0000       0.350292         9.5319 
  99   0.0000       0.358579         9.7574 
 100   0.0000       0.379315        10.3217 
 101   0.0000       0.388373        10.5682 
 102   0.0000       0.417291        11.3551 
 103   0.0000       0.422071        11.4851 
 104   0.0000       0.438811        11.9406 
 105   0.0000       0.447463        12.1761 
 106   0.0000       0.465575        12.6689 
 107   0.0000       0.484547        13.1852 
 108   0.0000       0.487845        13.2749 
 109   0.0000       0.503334        13.6964 
 110   0.0000       0.507472        13.8090 
 111   0.0000       0.518482        14.1086 
 112   0.0000       0.520131        14.1535 
 113   0.0000       0.523292        14.2395 
 114   0.0000       0.527484        14.3536 
 115   0.0000       0.530568        14.4375 
 116   0.0000       0.538044        14.6409 
 117   0.0000       0.544824        14.8254 
 118   0.0000       0.556116        15.1327 
 119   0.0000       0.566104        15.4045 
 120   0.0000       0.581494        15.8233 
 121   0.0000       0.583319        15.8729 
 122   0.0000       0.598715        16.2919 
 123   0.0000       0.601848        16.3771 
 124   0.0000       0.605092        16.4654 
 125   0.0000       0.621910        16.9230 
 126   0.0000       0.633318        17.2335 
 127   0.0000       0.642907        17.4944 
 128   0.0000       0.647502        17.6194 
 129   0.0000       0.659261        17.9394 
 130   0.0000       0.663745        18.0614 
 131   0.0000       0.675511        18.3816 
 132   0.0000       0.691462        18.8156 
 133   0.0000       0.693237        18.8639 
 134   0.0000       0.703125        19.1330 
 135   0.0000       0.708783        19.2870 
 136   0.0000       0.722289        19.6545 
 137   0.0000       0.725298        19.7364 
 138   0.0000       0.729672        19.8554 
 139   0.0000       0.732244        19.9254 
 140   0.0000       0.738647        20.0996 
 141   0.0000       0.743958        20.2441 
 142   0.0000       0.748998        20.3813 
 143   0.0000       0.754921        20.5424 
 144   0.0000       0.761734        20.7278 
 145   0.0000       0.765699        20.8357 
 146   0.0000       0.772348        21.0167 
 147   0.0000       0.776012        21.1164 
 148   0.0000       0.780112        21.2279 
 149   0.0000       0.788421        21.4540 
 150   0.0000       0.790203        21.5025 
 151   0.0000       0.790803        21.5188 
 152   0.0000       0.793631        21.5958 
 153   0.0000       0.797243        21.6941 
 154   0.0000       0.798937        21.7402 
 155   0.0000       0.808193        21.9920 
 156   0.0000       0.811861        22.0919 
 157   0.0000       0.816664        22.2226 
 158   0.0000       0.817883        22.2557 
 159   0.0000       0.823382        22.4054 
 160   0.0000       0.825399        22.4602 
 161   0.0000       0.829866        22.5818 
 162   0.0000       0.834794        22.7159 
 163   0.0000       0.847722        23.0677 
 164   0.0000       0.858425        23.3589 
 165   0.0000       0.862773        23.4772 
 166   0.0000       0.883125        24.0310 
 167   0.0000       0.885568        24.0975 
 168   0.0000       0.894627        24.3440 
 169   0.0000       0.904926        24.6243 
 170   0.0000       0.908211        24.7137 
 171   0.0000       0.918872        25.0038 
 172   0.0000       0.921434        25.0735 
 173   0.0000       0.949384        25.8340 
 174   0.0000       0.978609        26.6293 
 175   0.0000       0.992377        27.0039 
 176   0.0000       1.002845        27.2888 
 177   0.0000       1.014687        27.6110 
 178   0.0000       1.027305        27.9544 
 179   0.0000       1.045070        28.4378 
 180   0.0000       1.057256        28.7694 
 181   0.0000       1.065176        28.9849 
 182   0.0000       1.081143        29.4194 
 183   0.0000       1.096481        29.8368 
 184   0.0000       1.101114        29.9628 
 185   0.0000       1.106736        30.1158 
 186   0.0000       1.135064        30.8867 
 187   0.0000       1.157781        31.5048 
 188   0.0000       1.182943        32.1895 
 189   0.0000       1.186897        32.2971 
 190   0.0000       1.221091        33.2276 
 191   0.0000       1.231673        33.5155 
 192   0.0000       1.253863        34.1194 
 193   0.0000       1.262869        34.3644 
 194   0.0000       1.290306        35.1110 
 195   0.0000       1.307814        35.5874 
 196   0.0000       1.321264        35.9534 
 197   0.0000       1.335371        36.3373 
 198   0.0000       1.350011        36.7357 
 199   0.0000       1.369158        37.2567 
 200   0.0000       1.394356        37.9424 
 201   0.0000       1.417700        38.5776 
 202   0.0000       1.433196        38.9993 
 203   0.0000       1.436557        39.0907 
 204   0.0000       1.452044        39.5121 
 205   0.0000       1.476602        40.1804 
 206   0.0000       1.482599        40.3436 
 207   0.0000       1.500245        40.8237 
 208   0.0000       1.525478        41.5104 
 209   0.0000       1.536443        41.8087 
 210   0.0000       1.576759        42.9058 
 211   0.0000       1.583095        43.0782 
 212   0.0000       1.637800        44.5668 
 213   0.0000       1.644059        44.7371 
 214   0.0000       1.651928        44.9513 
 215   0.0000       1.661167        45.2026 
 216   0.0000       1.672679        45.5159 
 217   0.0000       1.679970        45.7143 
 218   0.0000       1.757201        47.8159 
 219   0.0000       1.792021        48.7634 
 220   0.0000       1.792525        48.7771 
 221   0.0000       1.803851        49.0853 
 222   0.0000       1.808221        49.2042 
 223   0.0000       1.814140        49.3653 
 224   0.0000       1.829984        49.7964 
 225   0.0000       1.838757        50.0351 
 226   0.0000       1.843973        50.1770 
 227   0.0000       1.850103        50.3439 
 228   0.0000       1.858656        50.5766 
 229   0.0000       1.866419        50.7878 
 230   0.0000       1.875572        51.0369 
 231   0.0000       1.876118        51.0518 
 232   0.0000       1.881545        51.1994 
 233   0.0000       1.892961        51.5101 
 234   0.0000       1.902140        51.7598 
 235   0.0000       1.907050        51.8935 
 236   0.0000       1.915709        52.1291 
 237   0.0000       1.924366        52.3647 
 238   0.0000       1.936557        52.6964 
 239   0.0000       1.945158        52.9304 
 240   0.0000       1.953391        53.1545 
 241   0.0000       1.961942        53.3872 
 242   0.0000       1.965043        53.4715 
 243   0.0000       1.977428        53.8086 
 244   0.0000       1.982399        53.9438 
 245   0.0000       1.984450        53.9996 
 246   0.0000       1.994777        54.2807 
 247   0.0000       2.002399        54.4881 
 248   0.0000       2.009918        54.6926 
 249   0.0000       2.013320        54.7852 
 250   0.0000       2.025834        55.1258 
 251   0.0000       2.042992        55.5926 
 252   0.0000       2.058872        56.0248 
 253   0.0000       2.075800        56.4854 
 254   0.0000       2.082196        56.6594 
 255   0.0000       2.096413        57.0463 
 256   0.0000       2.104994        57.2798 
 257   0.0000       2.121237        57.7218 
 258   0.0000       2.132515        58.0287 
 259   0.0000       2.148542        58.4648 
 260   0.0000       2.167578        58.9828 
 261   0.0000       2.172575        59.1188 
 262   0.0000       2.184009        59.4299 
 263   0.0000       2.197184        59.7884 
 264   0.0000       2.206448        60.0405 
 265   0.0000       2.236065        60.8464 
 266   0.0000       2.248403        61.1822 
 267   0.0000       2.266389        61.6716 
 268   0.0000       2.283005        62.1237 
 269   0.0000       2.302849        62.6637 
 270   0.0000       2.337057        63.5946 
 271   0.0000       2.363996        64.3276 
 272   0.0000       2.369503        64.4775 
 273   0.0000       2.392465        65.1023 
 274   0.0000       2.404055        65.4177 
 275   0.0000       2.421319        65.8874 
 276   0.0000       2.439137        66.3723 
 277   0.0000       2.467977        67.1571 
 278   0.0000       2.480900        67.5087 
 279   0.0000       2.489939        67.7547 
 280   0.0000       2.500394        68.0392 
 281   0.0000       2.502794        68.1045 
 282   0.0000       2.517142        68.4949 
 283   0.0000       2.531073        68.8740 
 284   0.0000       2.548676        69.3530 
 285   0.0000       2.562448        69.7278 
 286   0.0000       2.568814        69.9010 
 287   0.0000       2.582420        70.2712 
 288   0.0000       2.596376        70.6510 
 289   0.0000       2.619053        71.2680 
 290   0.0000       2.625873        71.4536 
 291   0.0000       2.645879        71.9980 
 292   0.0000       2.680058        72.9281 
 293   0.0000       2.704628        73.5967 
 294   0.0000       2.725950        74.1769 
 295   0.0000       2.735809        74.4452 
 296   0.0000       2.752776        74.9068 
 297   0.0000       2.759591        75.0923 
 298   0.0000       2.771127        75.4062 
 299   0.0000       2.787902        75.8627 
 300   0.0000       2.860279        77.8322 
 301   0.0000       2.864572        77.9490 
 302   0.0000       2.880852        78.3920 
 303   0.0000       2.908135        79.1344 
 304   0.0000       2.942074        80.0579 
 305   0.0000       2.948682        80.2377 
 306   0.0000       2.978594        81.0517 
 307   0.0000       2.993978        81.4703 
 308   0.0000       3.034370        82.5694 
 309   0.0000       3.052042        83.0503 
 310   0.0000       3.073952        83.6465 
 311   0.0000       3.081916        83.8632 
 312   0.0000       3.101558        84.3977 
 313   0.0000       3.115611        84.7801 
 314   0.0000       3.127193        85.0952 
 315   0.0000       3.151086        85.7454 
 316   0.0000       3.168879        86.2296 
 317   0.0000       3.213973        87.4566 
 318   0.0000       3.236474        88.0689 
 319   0.0000       3.286453        89.4289 
 320   0.0000       3.368607        91.6645 
 321   0.0000       3.439319        93.5886 

                    ********************************
                    * MULLIKEN POPULATION ANALYSIS *
                    ********************************

-----------------------
MULLIKEN ATOMIC CHARGES
-----------------------
   0 S :    0.127829
   1 C :   -0.137182
   2 C :   -0.080209
   3 C :    0.053049
   4 C :   -0.166313
   5 H :    0.011425
   6 C :    0.025590
   7 H :    0.029545
   8 H :    0.042357
   9 C :   -0.073946
  10 H :    0.031440
  11 H :    0.031926
  12 C :   -0.047167
  13 H :    0.028401
  14 H :    0.029059
  15 H :    0.033532
  16 S :    0.109393
  17 C :   -0.077792
  18 C :   -0.052095
  19 C :   -0.049461
  20 C :   -0.188455
  21 H :    0.040123
  22 C :    0.153848
  23 H :   -0.016174
  24 H :    0.019455
  25 C :   -0.054077
  26 H :    0.021985
  27 H :    0.017323
  28 C :   -0.051940
  29 H :    0.032049
  30 H :    0.030629
  31 H :    0.022959
  32 H :    0.060951
  33 H :    0.041943
Sum of atomic charges:    0.0000000

--------------------------------
MULLIKEN REDUCED ORBITAL CHARGES
--------------------------------
  0 S s       :     5.847520  s :     5.847520
      pz      :     3.323080  p :     9.920419
      px      :     3.623485
      py      :     2.973854
      dz2     :     0.012694  d :     0.104232
      dxz     :     0.011557
      dyz     :     0.045195
      dx2y2   :     0.012981
      dxy     :     0.021805
  1 C s       :     3.198203  s :     3.198203
      pz      :     0.902762  p :     2.907228
      px      :     1.120071
      py      :     0.884395
      dz2     :     0.007292  d :     0.031751
      dxz     :     0.006416
      dyz     :     0.011206
      dx2y2   :     0.004402
      dxy     :     0.002434
  2 C s       :     3.079304  s :     3.079304
      pz      :     0.959766  p :     2.957424
      px      :     0.987170
      py      :     1.010488
      dz2     :     0.011899  d :     0.043481
      dxz     :     0.007606
      dyz     :     0.011269
      dx2y2   :     0.006202
      dxy     :     0.006506
  3 C s       :     3.186791  s :     3.186791
      pz      :     0.849879  p :     2.726562
      px      :     1.001100
      py      :     0.875583
      dz2     :     0.008053  d :     0.033598
      dxz     :     0.004654
      dyz     :     0.010524
      dx2y2   :     0.004743
      dxy     :     0.005623
  4 C s       :     3.071347  s :     3.071347
      pz      :     0.974483  p :     3.050539
      px      :     1.078773
      py      :     0.997283
      dz2     :     0.008275  d :     0.044426
      dxz     :     0.007967
      dyz     :     0.016598
      dx2y2   :     0.005908
      dxy     :     0.005678
  5 H s       :     0.964686  s :     0.964686
      pz      :     0.010865  p :     0.023890
      px      :     0.005517
      py      :     0.007508
  6 C s       :     3.015945  s :     3.015945
      pz      :     0.941207  p :     2.924845
      px      :     1.002258
      py      :     0.981380
      dz2     :     0.006638  d :     0.033620
      dxz     :     0.008111
      dyz     :     0.006740
      dx2y2   :     0.005469
      dxy     :     0.006662
  7 H s       :     0.949920  s :     0.949920
      pz      :     0.003857  p :     0.020536
      px      :     0.004975
      py      :     0.011704
  8 H s       :     0.935627  s :     0.935627
      pz      :     0.007648  p :     0.022015
      px      :     0.008020
      py      :     0.006348
  9 C s       :     3.063485  s :     3.063485
      pz      :     0.968596  p :     2.974742
      px      :     0.980309
      py      :     1.025837
      dz2     :     0.008582  d :     0.035719
      dxz     :     0.007674
      dyz     :     0.005662
      dx2y2   :     0.004222
      dxy     :     0.009579
 10 H s       :     0.945623  s :     0.945623
      pz      :     0.006084  p :     0.022937
      px      :     0.007079
      py      :     0.009775
 11 H s       :     0.946175  s :     0.946175
      pz      :     0.003937  p :     0.021899
      px      :     0.006542
      py      :     0.011420
 12 C s       :     3.011116  s :     3.011116
      pz      :     0.971138  p :     3.007758
      px      :     1.021419
      py      :     1.015201
      dz2     :     0.006330  d :     0.028293
      dxz     :     0.006534
      dyz     :     0.005156
      dx2y2   :     0.005135
      dxy     :     0.005137
 13 H s       :     0.947853  s :     0.947853
      pz      :     0.004233  p :     0.023746
      px      :     0.007025
      py      :     0.012488
 14 H s       :     0.946277  s :     0.946277
      pz      :     0.006170  p :     0.024664
      px      :     0.012805
      py      :     0.005689
 15 H s       :     0.943577  s :     0.943577
      pz      :     0.005813  p :     0.022891
      px      :     0.007808
      py      :     0.009270
 16 S s       :     5.844831  s :     5.844831
      pz      :     3.473722  p :     9.933890
      px      :     3.385156
      py      :     3.075012
      dz2     :     0.019757  d :     0.111886
      dxz     :     0.019759
      dyz     :     0.016684
      dx2y2   :     0.030207
      dxy     :     0.025479
 17 C s       :     3.138364  s :     3.138364
      pz      :     1.047297  p :     2.902587
      px      :     0.990205
      py      :     0.865085
      dz2     :     0.003671  d :     0.036841
      dxz     :     0.006901
      dyz     :     0.005383
      dx2y2   :     0.010320
      dxy     :     0.010566
 18 C s       :     3.181380  s :     3.181380
      pz      :     1.000488  p :     2.834331
      px      :     0.907542
      py      :     0.926301
      dz2     :     0.005446  d :     0.036384
      dxz     :     0.006741
      dyz     :     0.004970
      dx2y2   :     0.010200
      dxy     :     0.009026
 19 C s       :     3.063541  s :     3.063541
      pz      :     0.988248  p :     2.942476
      px      :     1.006523
      py      :     0.947705
      dz2     :     0.006070  d :     0.043444
      dxz     :     0.007247
      dyz     :     0.007704
      dx2y2   :     0.010168
      dxy     :     0.012254
 20 C s       :     3.089693  s :     3.089693
      pz      :     1.054195  p :     3.055608
      px      :     0.977053
      py      :     1.024359
      dz2     :     0.005363  d :     0.043154
      dxz     :     0.008347
      dyz     :     0.005907
      dx2y2   :     0.012365
      dxy     :     0.011172
 21 H s       :     0.937755  s :     0.937755
      pz      :     0.004736  p :     0.022121
      px      :     0.005955
      py      :     0.011431
 22 C s       :     2.869769  s :     2.869769
      pz      :     1.020745  p :     2.938225
      px      :     0.917914
      py      :     0.999566
      dz2     :     0.009457  d :     0.038158
      dxz     :     0.007823
      dyz     :     0.003916
      dx2y2   :     0.009899
      dxy     :     0.007062
 23 H s       :     0.990393  s :     0.990393
      pz      :     0.005871  p :     0.025781
      px      :     0.005853
      py      :     0.014057
 24 H s       :     0.957143  s :     0.957143
      pz      :     0.012992  p :     0.023402
      px      :     0.004576
      py      :     0.005835
 25 C s       :     3.018921  s :     3.018921
      pz      :     1.017921  p :     2.996781
      px      :     0.963119
      py      :     1.015741
      dz2     :     0.008094  d :     0.038375
      dxz     :     0.007445
      dyz     :     0.006447
      dx2y2   :     0.008748
      dxy     :     0.007641
 26 H s       :     0.953142  s :     0.953142
      pz      :     0.005218  p :     0.024873
      px      :     0.005566
      py      :     0.014089
 27 H s       :     0.959555  s :     0.959555
      pz      :     0.012222  p :     0.023122
      px      :     0.004378
      py      :     0.006523
 28 C s       :     3.020038  s :     3.020038
      pz      :     1.014055  p :     3.003733
      px      :     0.971749
      py      :     1.017929
      dz2     :     0.004956  d :     0.028169
      dxz     :     0.005643
      dyz     :     0.006528
      dx2y2   :     0.003505
      dxy     :     0.007537
 29 H s       :     0.943639  s :     0.943639
      pz      :     0.008159  p :     0.024313
      px      :     0.007983
      py      :     0.008171
 30 H s       :     0.948536  s :     0.948536
      pz      :     0.004621  p :     0.020835
      px      :     0.005884
      py      :     0.010330
 31 H s       :     0.952229  s :     0.952229
      pz      :     0.012398  p :     0.024812
      px      :     0.004910
      py      :     0.007504
 32 H s       :     0.916521  s :     0.916521
      pz      :     0.002806  p :     0.022528
      px      :     0.005116
      py      :     0.014606
 33 H s       :     0.933152  s :     0.933152
      pz      :     0.008701  p :     0.024905
      px      :     0.007192
      py      :     0.009011


                     *******************************
                     * LOEWDIN POPULATION ANALYSIS *
                     *******************************

----------------------
LOEWDIN ATOMIC CHARGES
----------------------
   0 S :    0.411260
   1 C :   -0.198393
   2 C :   -0.066728
   3 C :   -0.059519
   4 C :   -0.203176
   5 H :    0.030797
   6 C :   -0.035545
   7 H :    0.035761
   8 H :    0.034873
   9 C :   -0.039421
  10 H :    0.023073
  11 H :    0.025309
  12 C :   -0.065258
  13 H :    0.023967
  14 H :    0.023376
  15 H :    0.026242
  16 S :    0.424401
  17 C :   -0.179413
  18 C :   -0.080905
  19 C :   -0.046161
  20 C :   -0.219918
  21 H :    0.044311
  22 C :   -0.026874
  23 H :    0.017755
  24 H :    0.034461
  25 C :   -0.039829
  26 H :    0.017701
  27 H :    0.023389
  28 C :   -0.064285
  29 H :    0.024037
  30 H :    0.027867
  31 H :    0.018623
  32 H :    0.039116
  33 H :    0.019108

-------------------------------
LOEWDIN REDUCED ORBITAL CHARGES
-------------------------------
  0 S s       :     5.523402  s :     5.523402
      pz      :     3.362707  p :     9.936738
      px      :     3.586252
      py      :     2.987779
      dz2     :     0.013208  d :     0.128600
      dxz     :     0.012201
      dyz     :     0.058689
      dx2y2   :     0.017062
      dxy     :     0.027440
  1 C s       :     2.953477  s :     2.953477
      pz      :     1.026318  p :     3.171163
      px      :     1.116620
      py      :     1.028224
      dz2     :     0.020237  d :     0.073753
      dxz     :     0.012746
      dyz     :     0.027867
      dx2y2   :     0.008875
      dxy     :     0.004029
  2 C s       :     2.866438  s :     2.866438
      pz      :     1.061040  p :     3.092994
      px      :     0.974939
      py      :     1.057015
      dz2     :     0.032814  d :     0.107297
      dxz     :     0.014926
      dyz     :     0.030489
      dx2y2   :     0.014847
      dxy     :     0.014221
  3 C s       :     2.868578  s :     2.868578
      pz      :     1.043500  p :     3.101468
      px      :     1.017538
      py      :     1.040431
      dz2     :     0.024821  d :     0.089473
      dxz     :     0.009648
      dyz     :     0.030665
      dx2y2   :     0.011965
      dxy     :     0.012374
  4 C s       :     2.915864  s :     2.915864
      pz      :     1.075454  p :     3.181874
      px      :     1.071015
      py      :     1.035405
      dz2     :     0.022314  d :     0.105438
      dxz     :     0.015989
      dyz     :     0.041252
      dx2y2   :     0.013500
      dxy     :     0.012382
  5 H s       :     0.898380  s :     0.898380
      pz      :     0.031486  p :     0.070823
      px      :     0.016525
      py      :     0.022812
  6 C s       :     2.849932  s :     2.849932
      pz      :     1.016010  p :     3.101923
      px      :     1.044612
      py      :     1.041300
      dz2     :     0.016322  d :     0.083690
      dxz     :     0.020756
      dyz     :     0.017709
      dx2y2   :     0.014123
      dxy     :     0.014780
  7 H s       :     0.905842  s :     0.905842
      pz      :     0.011026  p :     0.058396
      px      :     0.014578
      py      :     0.032792
  8 H s       :     0.901006  s :     0.901006
      pz      :     0.022474  p :     0.064121
      px      :     0.023688
      py      :     0.017958
  9 C s       :     2.839706  s :     2.839706
      pz      :     1.020473  p :     3.113577
      px      :     1.027768
      py      :     1.065335
      dz2     :     0.021863  d :     0.086139
      dxz     :     0.017806
      dyz     :     0.012516
      dx2y2   :     0.011057
      dxy     :     0.022896
 10 H s       :     0.907200  s :     0.907200
      pz      :     0.019793  p :     0.069727
      px      :     0.022523
      py      :     0.027412
 11 H s       :     0.910545  s :     0.910545
      pz      :     0.012541  p :     0.064146
      px      :     0.019873
      py      :     0.031732
 12 C s       :     2.833642  s :     2.833642
      pz      :     1.022687  p :     3.160130
      px      :     1.075074
      py      :     1.062370
      dz2     :     0.017819  d :     0.071486
      dxz     :     0.015333
      dyz     :     0.011817
      dx2y2   :     0.013050
      dxy     :     0.013467
 13 H s       :     0.909769  s :     0.909769
      pz      :     0.013979  p :     0.066264
      px      :     0.017676
      py      :     0.034609
 14 H s       :     0.905399  s :     0.905399
      pz      :     0.019947  p :     0.071225
      px      :     0.036044
      py      :     0.015234
 15 H s       :     0.909968  s :     0.909968
      pz      :     0.017624  p :     0.063790
      px      :     0.021128
      py      :     0.025038
 16 S s       :     5.498452  s :     5.498452
      pz      :     3.451577  p :     9.938514
      px      :     3.399411
      py      :     3.087526
      dz2     :     0.023956  d :     0.138632
      dxz     :     0.024627
      dyz     :     0.020376
      dx2y2   :     0.038251
      dxy     :     0.031422
 17 C s       :     2.917979  s :     2.917979
      pz      :     1.071454  p :     3.173464
      px      :     1.093585
      py      :     1.008425
      dz2     :     0.007727  d :     0.087970
      dxz     :     0.015376
      dyz     :     0.011812
      dx2y2   :     0.027000
      dxy     :     0.026054
 18 C s       :     2.866926  s :     2.866926
      pz      :     1.023259  p :     3.118969
      px      :     1.060176
      py      :     1.035534
      dz2     :     0.012212  d :     0.095009
      dxz     :     0.016132
      dyz     :     0.011919
      dx2y2   :     0.028914
      dxy     :     0.025831
 19 C s       :     2.862856  s :     2.862856
      pz      :     0.995167  p :     3.075257
      px      :     1.031465
      py      :     1.048625
      dz2     :     0.012686  d :     0.108047
      dxz     :     0.015667
      dyz     :     0.018675
      dx2y2   :     0.027750
      dxy     :     0.033269
 20 C s       :     2.912895  s :     2.912895
      pz      :     1.082410  p :     3.203395
      px      :     1.055096
      py      :     1.065888
      dz2     :     0.011877  d :     0.103628
      dxz     :     0.017921
      dyz     :     0.013067
      dx2y2   :     0.031819
      dxy     :     0.028944
 21 H s       :     0.892560  s :     0.892560
      pz      :     0.013817  p :     0.063128
      px      :     0.016872
      py      :     0.032439
 22 C s       :     2.802833  s :     2.802833
      pz      :     1.048760  p :     3.126988
      px      :     1.005239
      py      :     1.072989
      dz2     :     0.023510  d :     0.097054
      dxz     :     0.019958
      dyz     :     0.010250
      dx2y2   :     0.025038
      dxy     :     0.018298
 23 H s       :     0.904265  s :     0.904265
      pz      :     0.018159  p :     0.077980
      px      :     0.019476
      py      :     0.040345
 24 H s       :     0.899572  s :     0.899572
      pz      :     0.036481  p :     0.065968
      px      :     0.014055
      py      :     0.015431
 25 C s       :     2.816307  s :     2.816307
      pz      :     1.050437  p :     3.128468
      px      :     1.017581
      py      :     1.060450
      dz2     :     0.019263  d :     0.095055
      dxz     :     0.019158
      dyz     :     0.016202
      dx2y2   :     0.021682
      dxy     :     0.018749
 26 H s       :     0.910742  s :     0.910742
      pz      :     0.015659  p :     0.071557
      px      :     0.017669
      py      :     0.038229
 27 H s       :     0.908588  s :     0.908588
      pz      :     0.035298  p :     0.068023
      px      :     0.014561
      py      :     0.018163
 28 C s       :     2.840538  s :     2.840538
      pz      :     1.068178  p :     3.153418
      px      :     1.022343
      py      :     1.062897
      dz2     :     0.012297  d :     0.070329
      dxz     :     0.014905
      dyz     :     0.015701
      dx2y2   :     0.009253
      dxy     :     0.018174
 29 H s       :     0.907294  s :     0.907294
      pz      :     0.022287  p :     0.068669
      px      :     0.023601
      py      :     0.022781
 30 H s       :     0.916208  s :     0.916208
      pz      :     0.011511  p :     0.055925
      px      :     0.016857
      py      :     0.027557
 31 H s       :     0.909929  s :     0.909929
      pz      :     0.035402  p :     0.071449
      px      :     0.015215
      py      :     0.020832
 32 H s       :     0.891827  s :     0.891827
      pz      :     0.009122  p :     0.069057
      px      :     0.016220
      py      :     0.043715
 33 H s       :     0.902146  s :     0.902146
      pz      :     0.027213  p :     0.078746
      px      :     0.021810
      py      :     0.029723


                      *****************************
                      * MAYER POPULATION ANALYSIS *
                      *****************************

  NA   - Mulliken gross atomic population
  ZA   - Total nuclear charge
  QA   - Mulliken gross atomic charge
  VA   - Mayer's total valence
  BVA  - Mayer's bonded valence
  FA   - Mayer's free valence

  ATOM       NA         ZA         QA         VA         BVA        FA
  0 S     15.8722    16.0000     0.1278     2.4884     2.4884    -0.0000
  1 C      6.1372     6.0000    -0.1372     3.8430     3.8430     0.0000
  2 C      6.0802     6.0000    -0.0802     4.0073     4.0073     0.0000
  3 C      5.9470     6.0000     0.0530     3.9142     3.9142     0.0000
  4 C      6.1663     6.0000    -0.1663     3.9083     3.9083    -0.0000
  5 H      0.9886     1.0000     0.0114     1.0018     1.0018     0.0000
  6 C      5.9744     6.0000     0.0256     3.9557     3.9557     0.0000
  7 H      0.9705     1.0000     0.0295     0.9846     0.9846    -0.0000
  8 H      0.9576     1.0000     0.0424     0.9878     0.9878    -0.0000
  9 C      6.0739     6.0000    -0.0739     4.0666     4.0666     0.0000
 10 H      0.9686     1.0000     0.0314     0.9791     0.9791     0.0000
 11 H      0.9681     1.0000     0.0319     0.9828     0.9828     0.0000
 12 C      6.0472     6.0000    -0.0472     4.0003     4.0003     0.0000
 13 H      0.9716     1.0000     0.0284     0.9871     0.9871     0.0000
 14 H      0.9709     1.0000     0.0291     0.9867     0.9867    -0.0000
 15 H      0.9665     1.0000     0.0335     0.9919     0.9919     0.0000
 16 S     15.8906    16.0000     0.1094     2.5176     2.5176     0.0000
 17 C      6.0778     6.0000    -0.0778     3.8467     3.8467    -0.0000
 18 C      6.0521     6.0000    -0.0521     3.9457     3.9457    -0.0000
 19 C      6.0495     6.0000    -0.0495     4.0332     4.0332     0.0000
 20 C      6.1885     6.0000    -0.1885     3.8698     3.8698    -0.0000
 21 H      0.9599     1.0000     0.0401     0.9926     0.9926    -0.0000
 22 C      5.8462     6.0000     0.1538     3.9314     3.9314     0.0000
 23 H      1.0162     1.0000    -0.0162     0.9955     0.9955     0.0000
 24 H      0.9805     1.0000     0.0195     0.9959     0.9959     0.0000
 25 C      6.0541     6.0000    -0.0541     4.1079     4.1079     0.0000
 26 H      0.9780     1.0000     0.0220     0.9933     0.9933     0.0000
 27 H      0.9827     1.0000     0.0173     0.9775     0.9775     0.0000
 28 C      6.0519     6.0000    -0.0519     4.0044     4.0044     0.0000
 29 H      0.9680     1.0000     0.0320     0.9862     0.9862     0.0000
 30 H      0.9694     1.0000     0.0306     0.9857     0.9857     0.0000
 31 H      0.9770     1.0000     0.0230     0.9902     0.9902     0.0000
 32 H      0.9390     1.0000     0.0610     1.0033     1.0033     0.0000
 33 H      0.9581     1.0000     0.0419     0.9967     0.9967     0.0000

  Mayer bond orders larger than 0.100000
B(  0-S ,  1-C ) :   1.1280 B(  0-S ,  4-C ) :   1.1665 B(  1-C ,  2-C ) :   1.6209 
B(  1-C ,  4-C ) :   0.1023 B(  1-C , 32-H ) :   0.9567 B(  2-C ,  3-C ) :   1.2439 
B(  2-C ,  6-C ) :   1.0241 B(  3-C ,  4-C ) :   1.5779 B(  3-C ,  5-H ) :   0.9920 
B(  4-C , 20-C ) :   1.0039 B(  6-C ,  7-H ) :   0.9411 B(  6-C ,  8-H ) :   0.9448 
B(  6-C ,  9-C ) :   1.0555 B(  9-C , 10-H ) :   0.9564 B(  9-C , 11-H ) :   0.9597 
B(  9-C , 12-C ) :   1.0807 B( 12-C , 13-H ) :   0.9753 B( 12-C , 14-H ) :   0.9732 
B( 12-C , 15-H ) :   0.9763 B( 16-S , 17-C ) :   1.1770 B( 16-S , 20-C ) :   1.1647 
B( 17-C , 18-C ) :   1.5867 B( 17-C , 20-C ) :   0.1042 B( 17-C , 33-H ) :   0.9710 
B( 18-C , 19-C ) :   1.2765 B( 18-C , 21-H ) :   0.9841 B( 19-C , 20-C ) :   1.5640 
B( 19-C , 22-C ) :   1.0322 B( 22-C , 23-H ) :   0.9184 B( 22-C , 24-H ) :   0.9269 
B( 22-C , 25-C ) :   1.0788 B( 25-C , 26-H ) :   0.9521 B( 25-C , 27-H ) :   0.9471 
B( 25-C , 28-C ) :   1.0863 B( 28-C , 29-H ) :   0.9746 B( 28-C , 30-H ) :   0.9743 
B( 28-C , 31-H ) :   0.9748 

-------
TIMINGS
-------

Total SCF time: 0 days 0 hours 0 min 31 sec 

Total time                  ....      31.111 sec
Sum of individual times     ....      30.057 sec  ( 96.6%)

Fock matrix formation       ....      28.115 sec  ( 90.4%)
  XC integration            ....       1.858 sec  (  6.6% of F)
    Basis function eval.    ....       0.220 sec  ( 11.8% of XC)
    Density eval.           ....       0.167 sec  (  9.0% of XC)
    XC-Functional eval.     ....       0.190 sec  ( 10.2% of XC)
    XC-Potential eval.      ....       0.194 sec  ( 10.4% of XC)
Diagonalization             ....       0.163 sec  (  0.5%)
Density matrix formation    ....       0.024 sec  (  0.1%)
Population analysis         ....       0.050 sec  (  0.2%)
Initial guess               ....       0.182 sec  (  0.6%)
Orbital Transformation      ....       0.000 sec  (  0.0%)
Orbital Orthonormalization  ....       0.000 sec  (  0.0%)
DIIS solution               ....       0.164 sec  (  0.5%)
SOSCF solution              ....       0.147 sec  (  0.5%)
Grid generation             ....       1.211 sec  (  3.9%)


-------------------------------------------------------------------------------
                          DFT DISPERSION CORRECTION                            
                                                                               
                              DFTD3 V3.1  Rev 1                                
                              USING zero damping                               
-------------------------------------------------------------------------------
The omegaB97X-D3 functional is recognized. Fit by Chai et al.
Active option DFTDOPT                   ...         3   

molecular C6(AA) [au] = 14190.336964 


            DFT-D V3
 parameters
 s6 scaling factor         :     1.0000 
 rs6 scaling factor        :     1.2810 
 s8 scaling factor         :     1.0000 
 rs8 scaling factor        :     1.0940 
 Damping factor alpha6     :    14.0000 
 Damping factor alpha8     :    16.0000 
 ad hoc parameters k1-k3   :    16.0000     1.3333    -4.0000 

 Edisp/kcal,au: -8.987261165118  -0.014322110785 
 E6   /kcal   :  -4.068112846 
 E8   /kcal   :  -4.919148319 
 % E8         :  54.734676436 

-------------------------   ----------------
Dispersion correction           -0.014322111
-------------------------   ----------------


-------------------------   --------------------
FINAL SINGLE POINT ENERGY     -1339.884086476493
-------------------------   --------------------


                            ***************************************
                            *     ORCA property calculations      *
                            ***************************************

                                    ---------------------
                                    Active property flags
                                    ---------------------
   (+) Dipole Moment


------------------------------------------------------------------------------
                       ORCA ELECTRIC PROPERTIES CALCULATION
------------------------------------------------------------------------------

Dipole Moment Calculation                       ... on
Quadrupole Moment Calculation                   ... off
Polarizability Calculation                      ... off
GBWName                                         ... config_5319.gbw
Electron density file                           ... config_5319.scfp
The origin for moment calculation is the CENTER OF MASS  = (-6.078976, -19.731598 168.068468)

-------------
DIPOLE MOMENT
-------------
                                X             Y             Z
Electronic contribution:     13.06434       7.41856     -20.33206
Nuclear contribution   :    -13.27830      -7.43403      20.69127
                        -----------------------------------------
Total Dipole Moment    :     -0.21397      -0.01548       0.35920
                        -----------------------------------------
Magnitude (a.u.)       :      0.41839
Magnitude (Debye)      :      1.06346



--------------------
Rotational spectrum 
--------------------
 
Rotational constants in cm-1:     0.018717     0.008033     0.006942 
Rotational constants in MHz :   561.135584   240.828528   208.113093 

 Dipole components along the rotational axes: 
x,y,z [a.u.] :    -0.187930     0.275692     0.252436 
x,y,z [Debye]:    -0.477680     0.700754     0.641642 

 

Timings for individual modules:

Sum of individual times         ...       32.812 sec (=   0.547 min)
GTO integral calculation        ...        1.059 sec (=   0.018 min)   3.2 %
SCF iterations                  ...       31.753 sec (=   0.529 min)  96.8 %
                             ****ORCA TERMINATED NORMALLY****
TOTAL RUN TIME: 0 days 0 hours 0 minutes 34 seconds 31 msec
