
                                 *****************
                                 * O   R   C   A *
                                 *****************

           --- An Ab Initio, DFT and Semiempirical electronic structure package ---

                  #######################################################
                  #                        -***-                        #
                  #          Department of theory and spectroscopy      #
                  #               Directorship: Frank Neese             #
                  #        Max Planck Institute fuer Kohlenforschung    #
                  #                Kaiser Wilhelm Platz 1               #
                  #                 D-45470 Muelheim/Ruhr               #
                  #                      Germany                        #
                  #                                                     #
                  #                  All rights reserved                #
                  #                        -***-                        #
                  #######################################################


                         Program Version 4.2.1 -  RELEASE  -


 With contributions from (in alphabetic order):
   Daniel Aravena         : Magnetic Suceptibility
   Michael Atanasov       : Ab Initio Ligand Field Theory (pilot matlab implementation)
   Alexander A. Auer      : GIAO ZORA, VPT2
   Ute Becker             : Parallelization
   Giovanni Bistoni       : ED, misc. LED, open-shell LED, HFLD
   Martin Brehm           : Molecular dynamics
   Dmytro Bykov           : SCF Hessian
   Vijay G. Chilkuri      : MRCI spin determinant printing, contributions to CSF-ICE
   Dipayan Datta          : RHF DLPNO-CCSD density
   Achintya Kumar Dutta   : EOM-CC, STEOM-CC
   Dmitry Ganyushin       : Spin-Orbit,Spin-Spin,Magnetic field MRCI
   Miquel Garcia          : C-PCM Hessian, Gaussian charge scheme
   Yang Guo               : DLPNO-NEVPT2, CIM, IAO-localization
   Andreas Hansen         : Spin unrestricted coupled pair/coupled cluster methods
   Benjamin Helmich-Paris : CASSCF linear response (MC-RPA)
   Lee Huntington         : MR-EOM, pCC
   Robert Izsak           : Overlap fitted RIJCOSX, COSX-SCS-MP3, EOM
   Christian Kollmar      : KDIIS, OOCD, Brueckner-CCSD(T), CCSD density
   Simone Kossmann        : Meta GGA functionals, TD-DFT gradient, OOMP2, MP2 Hessian
   Martin Krupicka        : AUTO-CI
   Lucas Lang             : DCDCAS
   Dagmar Lenk            : GEPOL surface, SMD
   Dimitrios Liakos       : Extrapolation schemes; Compound Job, initial MDCI parallelization
   Dimitrios Manganas     : Further ROCIS development; embedding schemes
   Dimitrios Pantazis     : SARC Basis sets
   Taras Petrenko         : DFT Hessian,TD-DFT gradient, ASA, ECA, R-Raman, ABS, FL, XAS/XES, NRVS
   Peter Pinski           : DLPNO-MP2, DLPNO-MP2 Gradient
   Christoph Reimann      : Effective Core Potentials
   Marius Retegan         : Local ZFS, SOC
   Christoph Riplinger    : Optimizer, TS searches, QM/MM, DLPNO-CCSD(T), (RO)-DLPNO pert. Triples
   Tobias Risthaus        : Range-separated hybrids, TD-DFT gradient, RPA, STAB
   Michael Roemelt        : Original ROCIS implementation
   Masaaki Saitow         : Open-shell DLPNO-CCSD energy and density
   Barbara Sandhoefer     : DKH picture change effects
   Avijit Sen             : IP-ROCIS
   Kantharuban Sivalingam : CASSCF convergence, NEVPT2, FIC-MRCI
   Bernardo de Souza      : ESD, SOC TD-DFT
   Georgi Stoychev        : AutoAux, RI-MP2 NMR
   Willem Van den Heuvel  : Paramagnetic NMR
   Boris Wezisla          : Elementary symmetry handling
   Frank Wennmohs         : Technical directorship


 We gratefully acknowledge several colleagues who have allowed us to
 interface, adapt or use parts of their codes:
   Stefan Grimme, W. Hujo, H. Kruse,             : VdW corrections, initial TS optimization,
                  C. Bannwarth                     DFT functionals, gCP, sTDA/sTD-DF
   Ed Valeev, F. Pavosevic, A. Kumar             : LibInt (2-el integral package), F12 methods
   Garnet Chan, S. Sharma, J. Yang, R. Olivares  : DMRG
   Ulf Ekstrom                                   : XCFun DFT Library
   Mihaly Kallay                                 : mrcc  (arbitrary order and MRCC methods)
   Andreas Klamt, Michael Diedenhofen            : otool_cosmo (COSMO solvation model)
   Jiri Pittner, Ondrej Demel                    : Mk-CCSD
   Frank Weinhold                                : gennbo (NPA and NBO analysis)
   Christopher J. Cramer and Donald G. Truhlar   : smd solvation model
   Lars Goerigk                                  : TD-DFT with DH, B97 family of functionals
   V. Asgeirsson, H. Jonsson                     : NEB implementation
   FAccTs GmbH                                   : IRC, NEB, NEB-TS, Multilevel, MM, QM/MM, CI optimization
   S Lehtola, MJT Oliveira, MAL Marques          : LibXC Library


 Your calculation uses the libint2 library for the computation of 2-el integrals
 For citations please refer to: http://libint.valeyev.net

 Your ORCA version has been built with support for libXC version: 4.2.3
 For citations please refer to: https://tddft.org/programs/libxc/

 This ORCA versions uses:
   CBLAS   interface :  Fast vector & matrix operations
   LAPACKE interface :  Fast linear algebra routines
   SCALAPACK package :  Parallel linear algebra routines


Your calculation utilizes the atom-pairwise dispersion correction
with the zero-damping scheme (D30)
Cite in your paper:
S.Grimme, J.Antony, S.Ehrlich and H.Krieg, J.Chem.Phys., 132, (2010), 154104 
   

XCFun DFT library Copyright 2009-2010 Ulf Ekstrom and contributors.
See http://admol.org/xcfun for more information. This is free soft-
ware; see the source code for copying conditions. There is ABSOLUTELY
NO WARRANTY; not even for MERCHANTABILITY or FITNESS FOR A PARTICULAR
PURPOSE. For details see the documentation. Scientific users of this 
library should cite U. Ekstrom, L. Visscher, R. Bast, A. J. Thorvald-
sen and K. Ruud; J.Chem.Theor.Comp. 2010, DOI: 10.1021/ct100117s
XCFun Version 0.99 
----- Orbital basis set information -----
Your calculation utilizes the basis: def2-SVP
   F. Weigend and R. Ahlrichs, Phys. Chem. Chem. Phys. 7, 3297 (2005).

================================================================================
                                        WARNINGS
                       Please study these warnings very carefully!
================================================================================


INFO   : the flag for use of LIBINT has been found!

================================================================================
                                       INPUT FILE
================================================================================
NAME = config_6810.inp
|  1> ! wB97X-D3 SP def2-SVP
|  2> %pal
|  3> nprocs 16
|  4> end
|  5> 
|  6> * xyz 0 1
|  7> S 	 -51.4801 	 29.4954 	 93.4723 	 
|  8> C 	 -50.1219 	 28.471 	 93.9054 	 
|  9> C 	 -49.994 	 27.4074 	 93.0157 	 
| 10> C 	 -51.0883 	 27.3851 	 92.0593 	 
| 11> C 	 -51.9094 	 28.5056 	 92.1144 	 
| 12> H 	 -51.3402 	 26.6568 	 91.2961 	 
| 13> C 	 -48.8745 	 26.2622 	 93.1434 	 
| 14> H 	 -48.1441 	 26.4953 	 93.9077 	 
| 15> H 	 -48.4373 	 26.2185 	 92.0978 	 
| 16> C 	 -49.5123 	 24.8397 	 93.3316 	 
| 17> H 	 -50.2168 	 24.5038 	 92.5095 	 
| 18> H 	 -48.7209 	 24.0816 	 93.3195 	 
| 19> C 	 -50.3201 	 24.6035 	 94.6145 	 
| 20> H 	 -50.3606 	 23.4971 	 94.8081 	 
| 21> H 	 -49.9909 	 25.2438 	 95.4703 	 
| 22> H 	 -51.3109 	 25.0169 	 94.4074 	 
| 23> S 	 -52.6336 	 30.4649 	 90.3299 	 
| 24> C 	 -54.0739 	 30.0989 	 89.396 	 
| 25> C 	 -54.5723 	 28.8257 	 89.6095 	 
| 26> C 	 -53.9158 	 28.0959 	 90.6387 	 
| 27> C 	 -52.8195 	 28.8863 	 91.0678 	 
| 28> H 	 -55.4889 	 28.4822 	 89.1465 	 
| 29> C 	 -54.3558 	 26.7486 	 91.2183 	 
| 30> H 	 -53.4336 	 26.152 	 91.5468 	 
| 31> H 	 -54.7824 	 26.1791 	 90.383 	 
| 32> C 	 -55.3616 	 26.8408 	 92.3548 	 
| 33> H 	 -56.1899 	 27.4779 	 92.0814 	 
| 34> H 	 -54.8047 	 27.354 	 93.1436 	 
| 35> C 	 -55.8902 	 25.4754 	 92.8526 	 
| 36> H 	 -56.2431 	 25.6913 	 93.8482 	 
| 37> H 	 -55.1599 	 24.692 	 93.0442 	 
| 38> H 	 -56.6189 	 25.0971 	 92.1561 	 
| 39> H 	 -49.4796 	 28.732 	 94.7224 	 
| 40> H 	 -54.5549 	 30.8281 	 88.7777 	 
| 41> *
| 42> 
| 43>                          ****END OF INPUT****
================================================================================

                       ****************************
                       * Single Point Calculation *
                       ****************************

---------------------------------
CARTESIAN COORDINATES (ANGSTROEM)
---------------------------------
  S    -51.480100   29.495400   93.472300
  C    -50.121900   28.471000   93.905400
  C    -49.994000   27.407400   93.015700
  C    -51.088300   27.385100   92.059300
  C    -51.909400   28.505600   92.114400
  H    -51.340200   26.656800   91.296100
  C    -48.874500   26.262200   93.143400
  H    -48.144100   26.495300   93.907700
  H    -48.437300   26.218500   92.097800
  C    -49.512300   24.839700   93.331600
  H    -50.216800   24.503800   92.509500
  H    -48.720900   24.081600   93.319500
  C    -50.320100   24.603500   94.614500
  H    -50.360600   23.497100   94.808100
  H    -49.990900   25.243800   95.470300
  H    -51.310900   25.016900   94.407400
  S    -52.633600   30.464900   90.329900
  C    -54.073900   30.098900   89.396000
  C    -54.572300   28.825700   89.609500
  C    -53.915800   28.095900   90.638700
  C    -52.819500   28.886300   91.067800
  H    -55.488900   28.482200   89.146500
  C    -54.355800   26.748600   91.218300
  H    -53.433600   26.152000   91.546800
  H    -54.782400   26.179100   90.383000
  C    -55.361600   26.840800   92.354800
  H    -56.189900   27.477900   92.081400
  H    -54.804700   27.354000   93.143600
  C    -55.890200   25.475400   92.852600
  H    -56.243100   25.691300   93.848200
  H    -55.159900   24.692000   93.044200
  H    -56.618900   25.097100   92.156100
  H    -49.479600   28.732000   94.722400
  H    -54.554900   30.828100   88.777700

----------------------------
CARTESIAN COORDINATES (A.U.)
----------------------------
  NO LB      ZA    FRAG     MASS         X           Y           Z
   0 S    16.0000    0    32.060  -97.283290   55.738228  176.637048
   1 C     6.0000    0    12.011  -94.716664   53.802393  177.455488
   2 C     6.0000    0    12.011  -94.474968   51.792480  175.774199
   3 C     6.0000    0    12.011  -96.542896   51.750339  173.966865
   4 C     6.0000    0    12.011  -98.094550   53.867777  174.070989
   5 H     1.0000    0     1.008  -97.018918   50.374052  172.524626
   6 C     6.0000    0    12.011  -92.359420   49.628366  176.015517
   7 H     1.0000    0     1.008  -90.979164   50.068861  177.459835
   8 H     1.0000    0     1.008  -91.533232   49.545785  174.039620
   9 C     6.0000    0    12.011  -93.564687   46.940230  176.371164
  10 H     1.0000    0     1.008  -94.895999   46.305471  174.817620
  11 H     1.0000    0     1.008  -92.069158   45.507629  176.348298
  12 C     6.0000    0    12.011  -95.091208   46.493877  178.795493
  13 H     1.0000    0     1.008  -95.167742   44.403084  179.161344
  14 H     1.0000    0     1.008  -94.469110   47.703869  180.412721
  15 H     1.0000    0     1.008  -96.963549   47.275090  178.404131
  16 S    16.0000    0    32.060  -99.463089   57.570318  170.698773
  17 C     6.0000    0    12.011  -102.184862   56.878678  168.933957
  18 C     6.0000    0    12.011  -103.126701   54.472679  169.337414
  19 C     6.0000    0    12.011  -101.886096   53.093556  171.282320
  20 C     6.0000    0    12.011  -99.814390   54.587196  172.093202
  21 H     1.0000    0     1.008  -104.858824   53.823558  168.462471
  22 C     6.0000    0    12.011  -102.717576   50.547528  172.377605
  23 H     1.0000    0     1.008  -100.974870   49.420118  172.998380
  24 H     1.0000    0     1.008  -103.523733   49.471329  170.799117
  25 C     6.0000    0    12.011  -104.618262   50.721761  174.525279
  26 H     1.0000    0     1.008  -106.183522   51.925706  174.008628
  27 H     1.0000    0     1.008  -103.565874   51.691569  176.015895
  28 C     6.0000    0    12.011  -105.617172   48.141529  175.465985
  29 H     1.0000    0     1.008  -106.284056   48.549521  177.347396
  30 H     1.0000    0     1.008  -104.237105   46.661118  175.828056
  31 H     1.0000    0     1.008  -106.994215   47.426646  174.149791
  32 H     1.0000    0     1.008  -93.502893   54.295611  178.999395
  33 H     1.0000    0     1.008  -103.093820   58.256666  167.765540

--------------------------------
INTERNAL COORDINATES (ANGSTROEM)
--------------------------------
 S      0   0   0     0.000000000000     0.00000000     0.00000000
 C      1   0   0     1.755470936814     0.00000000     0.00000000
 C      2   1   0     1.392540649317   111.04727952     0.00000000
 C      3   2   1     1.453509800449   111.28237714   354.92515729
 C      4   3   2     1.390237918487   113.96717483     8.27261555
 H      4   3   2     1.084596118378   130.40369662   185.85628953
 C      3   2   1     1.606571062854   123.89407817   181.48812479
 H      7   3   2     1.082577599990   111.88662661   351.32807732
 H      7   3   2     1.134166165075   102.87352806   229.12055716
 C      7   3   2     1.570259319348   111.85385092   118.74039893
 H     10   7   3     1.133577288940   115.71825515    58.16905967
 H     10   7   3     1.095981742549   109.39025576   174.71962136
 C     10   7   3     1.534328416604   116.96943751   295.75892631
 H     13  10   7     1.123940465505   108.33286221   202.00231254
 H     13  10   7     1.118369514069   113.37289112   332.61261048
 H     13  10   7     1.093377615465   105.10042861    82.29976280
 S      5   4   3     2.747319125984   134.80869466   120.45917201
 C     17   5   4     1.755160761868   114.40681011    90.38143200
 C     18  17   5     1.383843578588   113.91067352   354.68339966
 C     19  18  17     1.422270343500   114.67661505     6.07278766
 C     20  19  18     1.418003053593   106.84755107   354.44907441
 H     19  18  17     1.082828153494   122.05690822   176.30276309
 C     20  19  18     1.531258779567   126.35223715   171.57003514
 H     23  20  19     1.146427777926   109.58448165   148.50275363
 H     23  20  19     1.097289341970   106.27391502    35.41131509
 C     23  20  19     1.520449515768   114.81294011   273.47535888
 H     26  23  20     1.080150387678   110.72271157    50.24459469
 H     26  23  20     1.093488587046   103.34174884   295.70553127
 C     26  23  20     1.546460461829   114.40500461   175.06406271
 H     29  26  23     1.078132913884   103.43433315   158.29548422
 H     29  26  23     1.088009287644   117.57968768    47.30344434
 H     29  26  23     1.076673966436   109.47095420   283.11792252
 H      2   1   3     1.071521950312   120.64694297   176.23953512
 H     18  17   5     1.070228260700   122.28513071   170.34102903

---------------------------
INTERNAL COORDINATES (A.U.)
---------------------------
 S      0   0   0     0.000000000000     0.00000000     0.00000000
 C      1   0   0     3.317359306637     0.00000000     0.00000000
 C      2   1   0     2.631520457562   111.04727952     0.00000000
 C      3   2   1     2.746735455818   111.28237714   354.92515729
 C      4   3   2     2.627168926934   113.96717483     8.27261555
 H      4   3   2     2.049589629648   130.40369662   185.85628953
 C      3   2   1     3.035979323477   123.89407817   181.48812479
 H      7   3   2     2.045775182699   111.88662661   351.32807732
 H      7   3   2     2.143263442351   102.87352806   229.12055716
 C      7   3   2     2.967360072806   111.85385092   118.74039893
 H     10   7   3     2.142150627729   115.71825515    58.16905967
 H     10   7   3     2.071105341195   109.39025576   174.71962136
 C     10   7   3     2.899460506876   116.96943751   295.75892631
 H     13  10   7     2.123939670637   108.33286221   202.00231254
 H     13  10   7     2.113412098118   113.37289112   332.61261048
 H     13  10   7     2.066184254189   105.10042861    82.29976280
 S      5   4   3     5.191680750595   134.80869466   120.45917201
 C     17   5   4     3.316773160935   114.40681011    90.38143200
 C     18  17   5     2.615085375717   113.91067352   354.68339966
 C     19  18  17     2.687701437613   114.67661505     6.07278766
 C     20  19  18     2.679637428355   106.84755107   354.44907441
 H     19  18  17     2.046248660204   122.05690822   176.30276309
 C     20  19  18     2.893659733543   126.35223715   171.57003514
 H     23  20  19     2.166434532600   109.58448165   148.50275363
 H     23  20  19     2.073576345993   106.27391502    35.41131509
 C     23  20  19     2.873233185255   114.81294011   273.47535888
 H     26  23  20     2.041188416159   110.72271157    50.24459469
 H     26  23  20     2.066393960086   103.34174884   295.70553127
 C     26  23  20     2.922386749794   114.40500461   175.06406271
 H     29  26  23     2.037375943207   103.43433315   158.29548422
 H     29  26  23     2.056039584810   117.57968768    47.30344434
 H     29  26  23     2.034618932086   109.47095420   283.11792252
 H      2   1   3     2.024883032574   120.64694297   176.23953512
 H     18  17   5     2.022438313505   122.28513071   170.34102903

---------------------
BASIS SET INFORMATION
---------------------
There are 3 groups of distinct atoms

 Group   1 Type S   : 10s7p1d contracted to 4s3p1d pattern {5311/511/1}
 Group   2 Type C   : 7s4p1d contracted to 3s2p1d pattern {511/31/1}
 Group   3 Type H   : 4s1p contracted to 2s1p pattern {31/1}

Atom   0S    basis set group =>   1
Atom   1C    basis set group =>   2
Atom   2C    basis set group =>   2
Atom   3C    basis set group =>   2
Atom   4C    basis set group =>   2
Atom   5H    basis set group =>   3
Atom   6C    basis set group =>   2
Atom   7H    basis set group =>   3
Atom   8H    basis set group =>   3
Atom   9C    basis set group =>   2
Atom  10H    basis set group =>   3
Atom  11H    basis set group =>   3
Atom  12C    basis set group =>   2
Atom  13H    basis set group =>   3
Atom  14H    basis set group =>   3
Atom  15H    basis set group =>   3
Atom  16S    basis set group =>   1
Atom  17C    basis set group =>   2
Atom  18C    basis set group =>   2
Atom  19C    basis set group =>   2
Atom  20C    basis set group =>   2
Atom  21H    basis set group =>   3
Atom  22C    basis set group =>   2
Atom  23H    basis set group =>   3
Atom  24H    basis set group =>   3
Atom  25C    basis set group =>   2
Atom  26H    basis set group =>   3
Atom  27H    basis set group =>   3
Atom  28C    basis set group =>   2
Atom  29H    basis set group =>   3
Atom  30H    basis set group =>   3
Atom  31H    basis set group =>   3
Atom  32H    basis set group =>   3
Atom  33H    basis set group =>   3


           ************************************************************
           *        Program running with 16 parallel MPI-processes    *
           *              working on a common directory               *
           ************************************************************
------------------------------------------------------------------------------
                           ORCA GTO INTEGRAL CALCULATION
------------------------------------------------------------------------------

                         BASIS SET STATISTICS AND STARTUP INFO

 # of primitive gaussian shells          ...  294
 # of primitive gaussian functions       ...  534
 # of contracted shells                  ...  154
 # of contracted basis functions         ...  322
 Highest angular momentum                ...    2
 Maximum contraction depth               ...    5
 Integral package used                   ... LIBINT
 Integral threshhold            Thresh   ...  1.000e-10
 Primitive cut-off              TCut     ...  1.000e-11


------------------------------ INTEGRAL EVALUATION ----------------------------


 * One electron integrals 
 Pre-screening matrix                    ... done
 Shell pair data                         ... done (   0.003 sec)



           ************************************************************
           *        Program running with 16 parallel MPI-processes    *
           *              working on a common directory               *
           ************************************************************
-------------------------------------------------------------------------------
                                 ORCA SCF
-------------------------------------------------------------------------------

------------
SCF SETTINGS
------------
Hamiltonian:
 Density Functional     Method          .... DFT(GTOs)
 Exchange Functional    Exchange        .... WB97X-D3
 Correlation Functional Correlation     .... WB97X-D3
 Gradients option       PostSCFGGA      .... off
 Hybrid DFT is turned on
   Fraction HF Exchange ScalHFX         ....  0.195728
   Scaling of DF-GGA-X  ScalDFX         ....  0.000000
   Scaling of DF-GGA-C  ScalDFC         ....  1.000000
   Scaling of DF-LDA-C  ScalLDAC        ....  1.000000
   Perturbative correction              ....  0.000000
   Density functional embedding theory  .... OFF
 Long-range corrected/Screened/Range-Separated Hybrid DFT is turned on
   Amount of maximum screened exact exchange              ....  0.804272
   Range separation parameter mu (erf(mu*r12)/r12)        ....  0.250000


General Settings:
 Integral files         IntName         .... config_6810
 Hartree-Fock type      HFTyp           .... RHF
 Total Charge           Charge          ....    0
 Multiplicity           Mult            ....    1
 Number of Electrons    NEL             ....  134
 Basis Dimension        Dim             ....  322
 Nuclear Repulsion      ENuc            ....   1288.9435546463 Eh

Convergence Acceleration:
 DIIS                   CNVDIIS         .... on
   Start iteration      DIISMaxIt       ....    12
   Startup error        DIISStart       ....  0.200000
   # of expansion vecs  DIISMaxEq       ....     5
   Bias factor          DIISBfac        ....   1.050
   Max. coefficient     DIISMaxC        ....  10.000
 Newton-Raphson         CNVNR           .... off
 SOSCF                  CNVSOSCF        .... on
   Start iteration      SOSCFMaxIt      ....   150
   Startup grad/error   SOSCFStart      ....  0.003300
 Level Shifting         CNVShift        .... on
   Level shift para.    LevelShift      ....    0.2500
   Turn off err/grad.   ShiftErr        ....    0.0010
 Zerner damping         CNVZerner       .... off
 Static damping         CNVDamp         .... on
   Fraction old density DampFac         ....    0.7000
   Max. Damping (<1)    DampMax         ....    0.9800
   Min. Damping (>=0)   DampMin         ....    0.0000
   Turn off err/grad.   DampErr         ....    0.1000
 Fernandez-Rico         CNVRico         .... off

SCF Procedure:
 Maximum # iterations   MaxIter         ....   125
 SCF integral mode      SCFMode         .... Direct
   Integral package                     .... LIBINT
 Reset frequency        DirectResetFreq ....    20
 Integral Threshold     Thresh          ....  1.000e-10 Eh
 Primitive CutOff       TCut            ....  1.000e-11 Eh

Convergence Tolerance:
 Convergence Check Mode ConvCheckMode   .... Total+1el-Energy
 Convergence forced     ConvForced      .... 0
 Energy Change          TolE            ....  1.000e-06 Eh
 1-El. energy change                    ....  1.000e-03 Eh
 Orbital Gradient       TolG            ....  5.000e-05
 Orbital Rotation angle TolX            ....  5.000e-05
 DIIS Error             TolErr          ....  1.000e-06


Diagonalization of the overlap matrix:
Smallest eigenvalue                        ... 7.033e-04
Time for diagonalization                   ...    0.016 sec
Threshold for overlap eigenvalues          ... 1.000e-08
Number of eigenvalues below threshold      ... 0
Time for construction of square roots      ...    0.026 sec
Total time needed                          ...    0.042 sec

-------------------
DFT GRID GENERATION
-------------------

General Integration Accuracy     IntAcc      ...  4.340
Radial Grid Type                 RadialGrid  ... Gauss-Chebyshev
Angular Grid (max. acc.)         AngularGrid ... Lebedev-110
Angular grid pruning method      GridPruning ... 3 (G Style)
Weight generation scheme         WeightScheme... Becke
Basis function cutoff            BFCut       ...    1.0000e-10
Integration weight cutoff        WCut        ...    1.0000e-14
Grids for H and He will be reduced by one unit

# of grid points (after initial pruning)     ...  41088 (   0.0 sec)
# of grid points (after weights+screening)   ...  36949 (   0.0 sec)
nearest neighbour list constructed           ...    0.0 sec
Grid point re-assignment to atoms done       ...    0.0 sec
Grid point division into batches done        ...    0.0 sec
Reduced shell lists constructed in    0.1 sec

Total number of grid points                  ...    36949
Total number of batches                      ...      591
Average number of points per batch           ...       62
Average number of grid points per atom       ...     1087
Average number of shells per batch           ...    78.74 (51.13%)
Average number of basis functions per batch  ...   154.21 (47.89%)
Average number of large shells per batch     ...    50.61 (64.27%)
Average number of large basis fcns per batch ...   102.34 (66.37%)
Maximum spatial batch extension              ...  12.18, 18.30, 15.98 au
Average spatial batch extension              ...   0.19,  0.21,  0.20 au

Time for grid setup =    0.217 sec

------------------------------
INITIAL GUESS: MODEL POTENTIAL
------------------------------
Loading Hartree-Fock densities                     ... done
Calculating cut-offs                               ... done
Setting up the integral package                    ... done
Initializing the effective Hamiltonian             ... done
Starting the Coulomb interaction                   ... done (   0.0 sec)
Reading the grid                                   ... done
Mapping shells                                     ... done
Starting the XC term evaluation                    ... done (   0.0 sec)
  promolecular density results
     # of electrons  =    133.996240948
     EX              =   -126.652908764
     EC              =     -4.608801405
     EX+EC           =   -131.261710169
Transforming the Hamiltonian                       ... done (   0.0 sec)
Diagonalizing the Hamiltonian                      ... done (   0.0 sec)
Back transforming the eigenvectors                 ... done (   0.0 sec)
Now organizing SCF variables                       ... done
                      ------------------
                      INITIAL GUESS DONE (   0.4 sec)
                      ------------------
--------------
SCF ITERATIONS
--------------
ITER       Energy         Delta-E        Max-DP      RMS-DP      [F,P]     Damp
               ***  Starting incremental Fock matrix formation  ***
  0  -1339.4380209550   0.000000000000 0.06516156  0.00153260  0.1602439 0.7000
  1  -1339.6199183936  -0.181897438597 0.04391259  0.00111855  0.0958722 0.7000
                               ***Turning on DIIS***
  2  -1339.7080291584  -0.088110764823 0.07695234  0.00211770  0.0489361 0.0000
  3  -1339.8407153344  -0.132686176027 0.04572717  0.00094628  0.0378053 0.0000
  4  -1339.8694958940  -0.028780559556 0.00780358  0.00019485  0.0078123 0.0000
                      *** Initiating the SOSCF procedure ***
                           *** Shutting down DIIS ***
                      *** Re-Reading the Fockian *** 
                      *** Removing any level shift *** 
ITER      Energy       Delta-E        Grad      Rot      Max-DP    RMS-DP
  5  -1339.87042559  -0.0009296930  0.001558  0.001558  0.003609  0.000103
               *** Restarting incremental Fock matrix formation ***
  6  -1339.87062156  -0.0001959730  0.001400  0.003942  0.002381  0.000063
  7  -1339.87068959  -0.0000680281  0.000690  0.004496  0.002455  0.000063
  8  -1339.87070880  -0.0000192116  0.000269  0.000428  0.000593  0.000017
  9  -1339.87071256  -0.0000037636  0.000085  0.000258  0.000177  0.000006
                 **** Energy Check signals convergence ****
              ***Rediagonalizing the Fockian in SOSCF/NRSCF***

               *****************************************************
               *                     SUCCESS                       *
               *           SCF CONVERGED AFTER  10 CYCLES          *
               *****************************************************

Setting up the final grid:

General Integration Accuracy     IntAcc      ...  4.670
Radial Grid Type                 RadialGrid  ... Gauss-Chebyshev
Angular Grid (max. acc.)         AngularGrid ... Lebedev-302
Angular grid pruning method      GridPruning ... 3 (G Style)
Weight generation scheme         WeightScheme... Becke
Basis function cutoff            BFCut       ...    1.0000e-10
Integration weight cutoff        WCut        ...    1.0000e-14
Grids for H and He will be reduced by one unit

# of grid points (after initial pruning)     ... 161752 (   0.0 sec)
# of grid points (after weights+screening)   ... 142649 (   0.2 sec)
nearest neighbour list constructed           ...    0.0 sec
Grid point re-assignment to atoms done       ...    0.0 sec
Grid point division into batches done        ...    0.5 sec
Reduced shell lists constructed in    0.6 sec

Total number of grid points                  ...   142649
Total number of batches                      ...     2247
Average number of points per batch           ...       63
Average number of grid points per atom       ...     4196
Average number of shells per batch           ...    73.18 (47.52%)
Average number of basis functions per batch  ...   143.03 (44.42%)
Average number of large shells per batch     ...    45.58 (62.29%)
Average number of large basis fcns per batch ...    92.68 (64.80%)
Maximum spatial batch extension              ...  13.80, 12.11, 14.73 au
Average spatial batch extension              ...   0.13,  0.13,  0.14 au

Final grid set up in    1.0 sec
Final integration                            ... done (   0.4 sec)
Change in XC energy                          ...     0.005982748
Integrated number of electrons               ...   133.999512688
Previous integrated no of electrons          ...   134.002375907

----------------
TOTAL SCF ENERGY
----------------

Total Energy       :        -1339.86473000 Eh          -36459.57287 eV

Components:
Nuclear Repulsion  :         1288.94355465 Eh           35073.93725 eV
Electronic Energy  :        -2628.80828464 Eh          -71533.51012 eV
One Electron Energy:        -4394.64548609 Eh         -119584.38323 eV
Two Electron Energy:         1765.83720145 Eh           48050.87311 eV

Virial components:
Potential Energy   :        -2670.91293034 Eh          -72679.23578 eV
Kinetic Energy     :         1331.04820034 Eh           36219.66290 eV
Virial Ratio       :            2.00662375


DFT components:
N(Alpha)           :       66.999756344035 electrons
N(Beta)            :       66.999756344035 electrons
N(Total)           :      133.999512688069 electrons
E(XC)              :      -94.163745913516 Eh       
DFET-embed. en.    :        0.000000000000 Eh       

---------------
SCF CONVERGENCE
---------------

  Last Energy change         ...   -1.8207e-07  Tolerance :   1.0000e-06
  Last MAX-Density change    ...    9.5709e-05  Tolerance :   1.0000e-05
  Last RMS-Density change    ...    2.7564e-06  Tolerance :   1.0000e-06
  Last Orbital Gradient      ...    7.6962e-05  Tolerance :   5.0000e-05
  Last Orbital Rotation      ...    1.3851e-04  Tolerance :   5.0000e-05

             **** THE GBW FILE WAS UPDATED (config_6810.gbw) ****
             **** DENSITY FILE WAS UPDATED (config_6810.scfp) ****
             **** ENERGY FILE WAS UPDATED (config_6810.en.tmp) ****
             **** THE GBW FILE WAS UPDATED (config_6810.gbw) ****
             **** DENSITY FILE WAS UPDATED (config_6810.scfp) ****
----------------
ORBITAL ENERGIES
----------------

  NO   OCC          E(Eh)            E(eV) 
   0   2.0000     -88.972482     -2421.0643 
   1   2.0000     -88.964254     -2420.8404 
   2   2.0000     -10.325625      -280.9745 
   3   2.0000     -10.323610      -280.9197 
   4   2.0000     -10.315037      -280.6864 
   5   2.0000     -10.314898      -280.6827 
   6   2.0000     -10.312185      -280.6088 
   7   2.0000     -10.308909      -280.5197 
   8   2.0000     -10.305180      -280.4182 
   9   2.0000     -10.298866      -280.2464 
  10   2.0000     -10.295560      -280.1564 
  11   2.0000     -10.294144      -280.1179 
  12   2.0000     -10.293039      -280.0878 
  13   2.0000     -10.284660      -279.8598 
  14   2.0000     -10.279889      -279.7300 
  15   2.0000     -10.276527      -279.6385 
  16   2.0000      -8.086824      -220.0537 
  17   2.0000      -8.079216      -219.8467 
  18   2.0000      -6.045128      -164.4963 
  19   2.0000      -6.041605      -164.4004 
  20   2.0000      -6.037679      -164.2936 
  21   2.0000      -6.037619      -164.2920 
  22   2.0000      -6.033604      -164.1827 
  23   2.0000      -6.030113      -164.0877 
  24   2.0000      -1.005369       -27.3575 
  25   2.0000      -0.979604       -26.6564 
  26   2.0000      -0.908859       -24.7313 
  27   2.0000      -0.899783       -24.4843 
  28   2.0000      -0.867431       -23.6040 
  29   2.0000      -0.854712       -23.2579 
  30   2.0000      -0.839519       -22.8445 
  31   2.0000      -0.808803       -22.0087 
  32   2.0000      -0.783803       -21.3284 
  33   2.0000      -0.770650       -20.9704 
  34   2.0000      -0.705194       -19.1893 
  35   2.0000      -0.692336       -18.8394 
  36   2.0000      -0.686826       -18.6895 
  37   2.0000      -0.658776       -17.9262 
  38   2.0000      -0.643221       -17.5029 
  39   2.0000      -0.613972       -16.7070 
  40   2.0000      -0.595867       -16.2144 
  41   2.0000      -0.569058       -15.4849 
  42   2.0000      -0.555600       -15.1186 
  43   2.0000      -0.542487       -14.7618 
  44   2.0000      -0.538821       -14.6621 
  45   2.0000      -0.524095       -14.2614 
  46   2.0000      -0.520407       -14.1610 
  47   2.0000      -0.509531       -13.8651 
  48   2.0000      -0.503883       -13.7114 
  49   2.0000      -0.495203       -13.4751 
  50   2.0000      -0.488258       -13.2862 
  51   2.0000      -0.483715       -13.1626 
  52   2.0000      -0.468139       -12.7387 
  53   2.0000      -0.461870       -12.5681 
  54   2.0000      -0.459479       -12.5031 
  55   2.0000      -0.453660       -12.3447 
  56   2.0000      -0.440354       -11.9826 
  57   2.0000      -0.436334       -11.8733 
  58   2.0000      -0.429905       -11.6983 
  59   2.0000      -0.426501       -11.6057 
  60   2.0000      -0.422096       -11.4858 
  61   2.0000      -0.417587       -11.3631 
  62   2.0000      -0.404909       -11.0181 
  63   2.0000      -0.343103        -9.3363 
  64   2.0000      -0.337077        -9.1723 
  65   2.0000      -0.326871        -8.8946 
  66   2.0000      -0.287547        -7.8245 
  67   0.0000       0.028511         0.7758 
  68   0.0000       0.070986         1.9316 
  69   0.0000       0.110923         3.0184 
  70   0.0000       0.116660         3.1745 
  71   0.0000       0.126349         3.4381 
  72   0.0000       0.134717         3.6658 
  73   0.0000       0.139111         3.7854 
  74   0.0000       0.154439         4.2025 
  75   0.0000       0.164730         4.4825 
  76   0.0000       0.170301         4.6341 
  77   0.0000       0.177824         4.8388 
  78   0.0000       0.188372         5.1259 
  79   0.0000       0.195089         5.3087 
  80   0.0000       0.198275         5.3953 
  81   0.0000       0.206569         5.6210 
  82   0.0000       0.212569         5.7843 
  83   0.0000       0.214056         5.8248 
  84   0.0000       0.220747         6.0068 
  85   0.0000       0.224598         6.1116 
  86   0.0000       0.233402         6.3512 
  87   0.0000       0.239649         6.5212 
  88   0.0000       0.245243         6.6734 
  89   0.0000       0.246367         6.7040 
  90   0.0000       0.253714         6.9039 
  91   0.0000       0.265826         7.2335 
  92   0.0000       0.273855         7.4520 
  93   0.0000       0.288446         7.8490 
  94   0.0000       0.301245         8.1973 
  95   0.0000       0.308308         8.3895 
  96   0.0000       0.326667         8.8891 
  97   0.0000       0.330020         8.9803 
  98   0.0000       0.343309         9.3419 
  99   0.0000       0.359504         9.7826 
 100   0.0000       0.363749         9.8981 
 101   0.0000       0.388412        10.5692 
 102   0.0000       0.413126        11.2417 
 103   0.0000       0.426466        11.6047 
 104   0.0000       0.438400        11.9295 
 105   0.0000       0.448764        12.2115 
 106   0.0000       0.461995        12.5715 
 107   0.0000       0.487197        13.2573 
 108   0.0000       0.489324        13.3152 
 109   0.0000       0.493256        13.4222 
 110   0.0000       0.503912        13.7121 
 111   0.0000       0.505010        13.7420 
 112   0.0000       0.514107        13.9896 
 113   0.0000       0.517045        14.0695 
 114   0.0000       0.528990        14.3946 
 115   0.0000       0.540668        14.7123 
 116   0.0000       0.546147        14.8614 
 117   0.0000       0.552635        15.0380 
 118   0.0000       0.553966        15.0742 
 119   0.0000       0.569598        15.4996 
 120   0.0000       0.585560        15.9339 
 121   0.0000       0.590529        16.0691 
 122   0.0000       0.595491        16.2041 
 123   0.0000       0.600342        16.3361 
 124   0.0000       0.612913        16.6782 
 125   0.0000       0.626734        17.0543 
 126   0.0000       0.635619        17.2961 
 127   0.0000       0.640344        17.4246 
 128   0.0000       0.646371        17.5886 
 129   0.0000       0.658015        17.9055 
 130   0.0000       0.674463        18.3531 
 131   0.0000       0.677353        18.4317 
 132   0.0000       0.686583        18.6829 
 133   0.0000       0.695210        18.9176 
 134   0.0000       0.698635        19.0108 
 135   0.0000       0.713473        19.4146 
 136   0.0000       0.721495        19.6329 
 137   0.0000       0.722384        19.6571 
 138   0.0000       0.725785        19.7496 
 139   0.0000       0.731038        19.8926 
 140   0.0000       0.736307        20.0359 
 141   0.0000       0.742460        20.2034 
 142   0.0000       0.745423        20.2840 
 143   0.0000       0.750683        20.4271 
 144   0.0000       0.762132        20.7387 
 145   0.0000       0.767205        20.8767 
 146   0.0000       0.770266        20.9600 
 147   0.0000       0.773284        21.0421 
 148   0.0000       0.776728        21.1358 
 149   0.0000       0.778040        21.1716 
 150   0.0000       0.783460        21.3190 
 151   0.0000       0.791049        21.5255 
 152   0.0000       0.793111        21.5817 
 153   0.0000       0.796799        21.6820 
 154   0.0000       0.797867        21.7111 
 155   0.0000       0.805512        21.9191 
 156   0.0000       0.807725        21.9793 
 157   0.0000       0.811564        22.0838 
 158   0.0000       0.814903        22.1746 
 159   0.0000       0.817975        22.2582 
 160   0.0000       0.824482        22.4353 
 161   0.0000       0.834990        22.7212 
 162   0.0000       0.842493        22.9254 
 163   0.0000       0.843044        22.9404 
 164   0.0000       0.854640        23.2559 
 165   0.0000       0.864072        23.5126 
 166   0.0000       0.865286        23.5456 
 167   0.0000       0.875260        23.8170 
 168   0.0000       0.888039        24.1648 
 169   0.0000       0.895435        24.3660 
 170   0.0000       0.899955        24.4890 
 171   0.0000       0.914746        24.8915 
 172   0.0000       0.926547        25.2126 
 173   0.0000       0.934953        25.4414 
 174   0.0000       0.946413        25.7532 
 175   0.0000       0.953977        25.9590 
 176   0.0000       0.977871        26.6092 
 177   0.0000       1.000554        27.2265 
 178   0.0000       1.024262        27.8716 
 179   0.0000       1.036074        28.1930 
 180   0.0000       1.069841        29.1119 
 181   0.0000       1.080018        29.3888 
 182   0.0000       1.091266        29.6949 
 183   0.0000       1.102539        30.0016 
 184   0.0000       1.114270        30.3208 
 185   0.0000       1.120476        30.4897 
 186   0.0000       1.137199        30.9448 
 187   0.0000       1.168784        31.8042 
 188   0.0000       1.170710        31.8566 
 189   0.0000       1.183045        32.1923 
 190   0.0000       1.224338        33.3159 
 191   0.0000       1.225073        33.3359 
 192   0.0000       1.235114        33.6092 
 193   0.0000       1.262150        34.3449 
 194   0.0000       1.286979        35.0205 
 195   0.0000       1.297926        35.3184 
 196   0.0000       1.310096        35.6495 
 197   0.0000       1.327355        36.1192 
 198   0.0000       1.357706        36.9451 
 199   0.0000       1.374655        37.4063 
 200   0.0000       1.390610        37.8404 
 201   0.0000       1.400969        38.1223 
 202   0.0000       1.418280        38.5934 
 203   0.0000       1.436007        39.0757 
 204   0.0000       1.439389        39.1678 
 205   0.0000       1.460924        39.7538 
 206   0.0000       1.492862        40.6228 
 207   0.0000       1.504580        40.9417 
 208   0.0000       1.519018        41.3346 
 209   0.0000       1.535488        41.7828 
 210   0.0000       1.569606        42.7111 
 211   0.0000       1.608378        43.7662 
 212   0.0000       1.628771        44.3211 
 213   0.0000       1.634252        44.4703 
 214   0.0000       1.636642        44.5353 
 215   0.0000       1.669919        45.4408 
 216   0.0000       1.688195        45.9381 
 217   0.0000       1.692550        46.0566 
 218   0.0000       1.727248        47.0008 
 219   0.0000       1.768045        48.1109 
 220   0.0000       1.780622        48.4532 
 221   0.0000       1.790374        48.7185 
 222   0.0000       1.791546        48.7505 
 223   0.0000       1.801481        49.0208 
 224   0.0000       1.811254        49.2867 
 225   0.0000       1.815149        49.3927 
 226   0.0000       1.833103        49.8813 
 227   0.0000       1.835528        49.9473 
 228   0.0000       1.846531        50.2467 
 229   0.0000       1.853838        50.4455 
 230   0.0000       1.856255        50.5113 
 231   0.0000       1.860496        50.6267 
 232   0.0000       1.869770        50.8790 
 233   0.0000       1.888551        51.3901 
 234   0.0000       1.898813        51.6693 
 235   0.0000       1.905317        51.8463 
 236   0.0000       1.908399        51.9302 
 237   0.0000       1.911814        52.0231 
 238   0.0000       1.920072        52.2478 
 239   0.0000       1.936176        52.6860 
 240   0.0000       1.943983        52.8985 
 241   0.0000       1.951390        53.1000 
 242   0.0000       1.967284        53.5325 
 243   0.0000       1.980070        53.8805 
 244   0.0000       1.984095        53.9900 
 245   0.0000       1.987934        54.0944 
 246   0.0000       1.995799        54.3085 
 247   0.0000       2.000891        54.4470 
 248   0.0000       2.011827        54.7446 
 249   0.0000       2.021883        55.0182 
 250   0.0000       2.027738        55.1775 
 251   0.0000       2.038357        55.4665 
 252   0.0000       2.046336        55.6836 
 253   0.0000       2.068113        56.2762 
 254   0.0000       2.083478        56.6943 
 255   0.0000       2.096255        57.0420 
 256   0.0000       2.119020        57.6615 
 257   0.0000       2.128343        57.9152 
 258   0.0000       2.135347        58.1058 
 259   0.0000       2.142249        58.2936 
 260   0.0000       2.154028        58.6141 
 261   0.0000       2.170329        59.0577 
 262   0.0000       2.179120        59.2969 
 263   0.0000       2.199342        59.8471 
 264   0.0000       2.211079        60.1665 
 265   0.0000       2.221623        60.4534 
 266   0.0000       2.257427        61.4277 
 267   0.0000       2.264010        61.6069 
 268   0.0000       2.287063        62.2342 
 269   0.0000       2.292001        62.3685 
 270   0.0000       2.315407        63.0054 
 271   0.0000       2.330255        63.4095 
 272   0.0000       2.379195        64.7412 
 273   0.0000       2.383918        64.8697 
 274   0.0000       2.394752        65.1645 
 275   0.0000       2.405674        65.4617 
 276   0.0000       2.413173        65.6658 
 277   0.0000       2.427525        66.0563 
 278   0.0000       2.445629        66.5489 
 279   0.0000       2.468702        67.1768 
 280   0.0000       2.490562        67.7716 
 281   0.0000       2.496677        67.9380 
 282   0.0000       2.509230        68.2796 
 283   0.0000       2.515267        68.4439 
 284   0.0000       2.522672        68.6454 
 285   0.0000       2.546675        69.2985 
 286   0.0000       2.554441        69.5099 
 287   0.0000       2.557725        69.5992 
 288   0.0000       2.572277        69.9952 
 289   0.0000       2.604393        70.8691 
 290   0.0000       2.610550        71.0367 
 291   0.0000       2.647709        72.0478 
 292   0.0000       2.663494        72.4774 
 293   0.0000       2.680347        72.9360 
 294   0.0000       2.696142        73.3657 
 295   0.0000       2.717932        73.9587 
 296   0.0000       2.733136        74.3724 
 297   0.0000       2.764575        75.2279 
 298   0.0000       2.788808        75.8873 
 299   0.0000       2.810217        76.4699 
 300   0.0000       2.832797        77.0843 
 301   0.0000       2.869177        78.0743 
 302   0.0000       2.875209        78.2384 
 303   0.0000       2.910113        79.1882 
 304   0.0000       2.942821        80.0782 
 305   0.0000       2.961713        80.5923 
 306   0.0000       2.988106        81.3105 
 307   0.0000       3.001784        81.6827 
 308   0.0000       3.004903        81.7676 
 309   0.0000       3.020135        82.1820 
 310   0.0000       3.028530        82.4105 
 311   0.0000       3.051503        83.0356 
 312   0.0000       3.076870        83.7259 
 313   0.0000       3.090308        84.0915 
 314   0.0000       3.096194        84.2517 
 315   0.0000       3.135098        85.3103 
 316   0.0000       3.165123        86.1274 
 317   0.0000       3.179228        86.5112 
 318   0.0000       3.190298        86.8124 
 319   0.0000       3.221365        87.6578 
 320   0.0000       3.356595        91.3376 
 321   0.0000       3.422656        93.1352 

                    ********************************
                    * MULLIKEN POPULATION ANALYSIS *
                    ********************************

-----------------------
MULLIKEN ATOMIC CHARGES
-----------------------
   0 S :    0.105486
   1 C :   -0.136977
   2 C :   -0.076728
   3 C :    0.023689
   4 C :   -0.174188
   5 H :    0.019760
   6 C :    0.078132
   7 H :    0.034825
   8 H :    0.051344
   9 C :   -0.122317
  10 H :    0.037775
  11 H :    0.030099
  12 C :   -0.068898
  13 H :    0.050299
  14 H :    0.034294
  15 H :    0.034313
  16 S :    0.134331
  17 C :   -0.094053
  18 C :   -0.015669
  19 C :   -0.047578
  20 C :   -0.175347
  21 H :    0.012214
  22 C :    0.058768
  23 H :    0.027533
  24 H :    0.019618
  25 C :   -0.071844
  26 H :    0.028279
  27 H :    0.032226
  28 C :   -0.022215
  29 H :    0.032792
  30 H :    0.025559
  31 H :    0.037375
  32 H :    0.048392
  33 H :    0.048712
Sum of atomic charges:    0.0000000

--------------------------------
MULLIKEN REDUCED ORBITAL CHARGES
--------------------------------
  0 S s       :     5.845006  s :     5.845006
      pz      :     3.235890  p :     9.941459
      px      :     3.279149
      py      :     3.426421
      dz2     :     0.025773  d :     0.108049
      dxz     :     0.013205
      dyz     :     0.025842
      dx2y2   :     0.016674
      dxy     :     0.026556
  1 C s       :     3.198901  s :     3.198901
      pz      :     1.002287  p :     2.904777
      px      :     0.914724
      py      :     0.987765
      dz2     :     0.006103  d :     0.033299
      dxz     :     0.006093
      dyz     :     0.006541
      dx2y2   :     0.006559
      dxy     :     0.008003
  2 C s       :     3.082168  s :     3.082168
      pz      :     0.981345  p :     2.953804
      px      :     0.995790
      py      :     0.976668
      dz2     :     0.007998  d :     0.040756
      dxz     :     0.008466
      dyz     :     0.007512
      dx2y2   :     0.008762
      dxy     :     0.008018
  3 C s       :     3.188166  s :     3.188166
      pz      :     0.918800  p :     2.754760
      px      :     0.936063
      py      :     0.899897
      dz2     :     0.005469  d :     0.033386
      dxz     :     0.005883
      dyz     :     0.006456
      dx2y2   :     0.008094
      dxy     :     0.007484
  4 C s       :     3.063498  s :     3.063498
      pz      :     1.008073  p :     3.064641
      px      :     1.059767
      py      :     0.996801
      dz2     :     0.010827  d :     0.046049
      dxz     :     0.007650
      dyz     :     0.010922
      dx2y2   :     0.008019
      dxy     :     0.008631
  5 H s       :     0.956029  s :     0.956029
      pz      :     0.010120  p :     0.024212
      px      :     0.004794
      py      :     0.009298
  6 C s       :     3.026985  s :     3.026985
      pz      :     0.978726  p :     2.863676
      px      :     0.979349
      py      :     0.905602
      dz2     :     0.006453  d :     0.031207
      dxz     :     0.007222
      dyz     :     0.003214
      dx2y2   :     0.005791
      dxy     :     0.008526
  7 H s       :     0.942945  s :     0.942945
      pz      :     0.009503  p :     0.022231
      px      :     0.008730
      py      :     0.003998
  8 H s       :     0.927521  s :     0.927521
      pz      :     0.012090  p :     0.021135
      px      :     0.004953
      py      :     0.004092
  9 C s       :     3.084667  s :     3.084667
      pz      :     1.020435  p :     3.001969
      px      :     1.004104
      py      :     0.977431
      dz2     :     0.007624  d :     0.035681
      dxz     :     0.008552
      dyz     :     0.005144
      dx2y2   :     0.004431
      dxy     :     0.009930
 10 H s       :     0.941606  s :     0.941606
      pz      :     0.008735  p :     0.020619
      px      :     0.007973
      py      :     0.003911
 11 H s       :     0.947151  s :     0.947151
      pz      :     0.004663  p :     0.022749
      px      :     0.009577
      py      :     0.008509
 12 C s       :     3.045158  s :     3.045158
      pz      :     0.979918  p :     2.996259
      px      :     1.031452
      py      :     0.984889
      dz2     :     0.006979  d :     0.027481
      dxz     :     0.005146
      dyz     :     0.005126
      dx2y2   :     0.006723
      dxy     :     0.003507
 13 H s       :     0.928161  s :     0.928161
      pz      :     0.004086  p :     0.021541
      px      :     0.004220
      py      :     0.013236
 14 H s       :     0.943448  s :     0.943448
      pz      :     0.009461  p :     0.022258
      px      :     0.005743
      py      :     0.007053
 15 H s       :     0.941508  s :     0.941508
      pz      :     0.005439  p :     0.024179
      px      :     0.012592
      py      :     0.006148
 16 S s       :     5.847853  s :     5.847853
      pz      :     3.336864  p :     9.913024
      px      :     3.335798
      py      :     3.240361
      dz2     :     0.019978  d :     0.104793
      dxz     :     0.020295
      dyz     :     0.019211
      dx2y2   :     0.029800
      dxy     :     0.015508
 17 C s       :     3.148594  s :     3.148594
      pz      :     1.011975  p :     2.910888
      px      :     0.928172
      py      :     0.970741
      dz2     :     0.003463  d :     0.034571
      dxz     :     0.006138
      dyz     :     0.007998
      dx2y2   :     0.009437
      dxy     :     0.007535
 18 C s       :     3.173086  s :     3.173086
      pz      :     0.980140  p :     2.807207
      px      :     0.914948
      py      :     0.912119
      dz2     :     0.006633  d :     0.035376
      dxz     :     0.005393
      dyz     :     0.007333
      dx2y2   :     0.008131
      dxy     :     0.007886
 19 C s       :     3.088409  s :     3.088409
      pz      :     0.973838  p :     2.917576
      px      :     0.980330
      py      :     0.963409
      dz2     :     0.007738  d :     0.041592
      dxz     :     0.005896
      dyz     :     0.009252
      dx2y2   :     0.008534
      dxy     :     0.010172
 20 C s       :     3.054333  s :     3.054333
      pz      :     1.056475  p :     3.076699
      px      :     1.071098
      py      :     0.949127
      dz2     :     0.007073  d :     0.044315
      dxz     :     0.008400
      dyz     :     0.009056
      dx2y2   :     0.012634
      dxy     :     0.007154
 21 H s       :     0.964020  s :     0.964020
      pz      :     0.006386  p :     0.023767
      px      :     0.012587
      py      :     0.004794
 22 C s       :     2.960907  s :     2.960907
      pz      :     0.979712  p :     2.944813
      px      :     0.990304
      py      :     0.974797
      dz2     :     0.006598  d :     0.035512
      dxz     :     0.007547
      dyz     :     0.008252
      dx2y2   :     0.005922
      dxy     :     0.007193
 23 H s       :     0.951629  s :     0.951629
      pz      :     0.004559  p :     0.020838
      px      :     0.010366
      py      :     0.005914
 24 H s       :     0.957968  s :     0.957968
      pz      :     0.009737  p :     0.022415
      px      :     0.005819
      py      :     0.006859
 25 C s       :     3.057681  s :     3.057681
      pz      :     1.000050  p :     2.977203
      px      :     0.975790
      py      :     1.001363
      dz2     :     0.006266  d :     0.036961
      dxz     :     0.009081
      dyz     :     0.007031
      dx2y2   :     0.005197
      dxy     :     0.009386
 26 H s       :     0.948965  s :     0.948965
      pz      :     0.004991  p :     0.022755
      px      :     0.010204
      py      :     0.007560
 27 H s       :     0.944908  s :     0.944908
      pz      :     0.009450  p :     0.022866
      px      :     0.007331
      py      :     0.006085
 28 C s       :     2.991517  s :     2.991517
      pz      :     1.000819  p :     3.002801
      px      :     1.037368
      py      :     0.964614
      dz2     :     0.006085  d :     0.027897
      dxz     :     0.005643
      dyz     :     0.004611
      dx2y2   :     0.003389
      dxy     :     0.008170
 29 H s       :     0.942043  s :     0.942043
      pz      :     0.013083  p :     0.025165
      px      :     0.006285
      py      :     0.005798
 30 H s       :     0.950133  s :     0.950133
      pz      :     0.005827  p :     0.024309
      px      :     0.009216
      py      :     0.009266
 31 H s       :     0.938610  s :     0.938610
      pz      :     0.008682  p :     0.024014
      px      :     0.009574
      py      :     0.005759
 32 H s       :     0.927538  s :     0.927538
      pz      :     0.011290  p :     0.024070
      px      :     0.008181
      py      :     0.004600
 33 H s       :     0.927018  s :     0.927018
      pz      :     0.008774  p :     0.024270
      px      :     0.006334
      py      :     0.009162


                     *******************************
                     * LOEWDIN POPULATION ANALYSIS *
                     *******************************

----------------------
LOEWDIN ATOMIC CHARGES
----------------------
   0 S :    0.403189
   1 C :   -0.199820
   2 C :   -0.060225
   3 C :   -0.067125
   4 C :   -0.204947
   5 H :    0.028980
   6 C :   -0.023098
   7 H :    0.028781
   8 H :    0.043885
   9 C :   -0.054440
  10 H :    0.029722
  11 H :    0.020543
  12 C :   -0.077342
  13 H :    0.034185
  14 H :    0.027230
  15 H :    0.024944
  16 S :    0.413166
  17 C :   -0.185648
  18 C :   -0.065905
  19 C :   -0.053057
  20 C :   -0.198167
  21 H :    0.029740
  22 C :   -0.037640
  23 H :    0.036755
  24 H :    0.027290
  25 C :   -0.037231
  26 H :    0.024422
  27 H :    0.027377
  28 C :   -0.062692
  29 H :    0.030277
  30 H :    0.025106
  31 H :    0.024579
  32 H :    0.024101
  33 H :    0.023067

-------------------------------
LOEWDIN REDUCED ORBITAL CHARGES
-------------------------------
  0 S s       :     5.500399  s :     5.500399
      pz      :     3.243785  p :     9.962030
      px      :     3.267254
      py      :     3.450991
      dz2     :     0.032255  d :     0.134383
      dxz     :     0.017219
      dyz     :     0.032939
      dx2y2   :     0.019420
      dxy     :     0.032550
  1 C s       :     2.933304  s :     2.933304
      pz      :     1.089566  p :     3.186979
      px      :     1.025456
      py      :     1.071957
      dz2     :     0.013640  d :     0.079537
      dxz     :     0.013634
      dyz     :     0.017525
      dx2y2   :     0.015676
      dxy     :     0.019063
  2 C s       :     2.887437  s :     2.887437
      pz      :     1.030106  p :     3.075128
      px      :     1.015998
      py      :     1.029024
      dz2     :     0.018057  d :     0.097660
      dxz     :     0.020018
      dyz     :     0.020066
      dx2y2   :     0.020332
      dxy     :     0.019188
  3 C s       :     2.872525  s :     2.872525
      pz      :     1.033238  p :     3.107268
      px      :     1.026468
      py      :     1.047563
      dz2     :     0.013192  d :     0.087331
      dxz     :     0.015751
      dyz     :     0.016681
      dx2y2   :     0.020768
      dxy     :     0.020940
  4 C s       :     2.905323  s :     2.905323
      pz      :     1.044121  p :     3.189418
      px      :     1.070359
      py      :     1.074939
      dz2     :     0.025607  d :     0.110205
      dxz     :     0.017718
      dyz     :     0.026767
      dx2y2   :     0.017591
      dxy     :     0.022523
  5 H s       :     0.899297  s :     0.899297
      pz      :     0.030122  p :     0.071723
      px      :     0.015044
      py      :     0.026557
  6 C s       :     2.859120  s :     2.859120
      pz      :     1.059153  p :     3.087260
      px      :     1.030393
      py      :     0.997714
      dz2     :     0.016986  d :     0.076717
      dxz     :     0.018087
      dyz     :     0.006721
      dx2y2   :     0.012925
      dxy     :     0.021998
  7 H s       :     0.902981  s :     0.902981
      pz      :     0.027753  p :     0.068238
      px      :     0.026848
      py      :     0.013636
  8 H s       :     0.894810  s :     0.894810
      pz      :     0.034698  p :     0.061305
      px      :     0.014597
      py      :     0.012011
  9 C s       :     2.852422  s :     2.852422
      pz      :     1.047244  p :     3.117417
      px      :     1.051619
      py      :     1.018554
      dz2     :     0.018433  d :     0.084601
      dxz     :     0.021561
      dyz     :     0.009887
      dx2y2   :     0.010468
      dxy     :     0.024252
 10 H s       :     0.909987  s :     0.909987
      pz      :     0.025306  p :     0.060291
      px      :     0.021932
      py      :     0.013053
 11 H s       :     0.912393  s :     0.912393
      pz      :     0.014103  p :     0.067064
      px      :     0.026860
      py      :     0.026102
 12 C s       :     2.850167  s :     2.850167
      pz      :     1.039173  p :     3.157953
      px      :     1.072279
      py      :     1.046500
      dz2     :     0.016873  d :     0.069223
      dxz     :     0.013554
      dyz     :     0.013106
      dx2y2   :     0.017433
      dxy     :     0.008257
 13 H s       :     0.904864  s :     0.904864
      pz      :     0.011759  p :     0.060951
      px      :     0.011617
      py      :     0.037575
 14 H s       :     0.910258  s :     0.910258
      pz      :     0.027347  p :     0.062512
      px      :     0.015246
      py      :     0.019920
 15 H s       :     0.907487  s :     0.907487
      pz      :     0.015208  p :     0.067568
      px      :     0.035794
      py      :     0.016566
 16 S s       :     5.518638  s :     5.518638
      pz      :     3.319446  p :     9.938847
      px      :     3.338817
      py      :     3.280584
      dz2     :     0.023903  d :     0.129349
      dxz     :     0.026052
      dyz     :     0.024646
      dx2y2   :     0.037274
      dxy     :     0.017474
 17 C s       :     2.929042  s :     2.929042
      pz      :     1.065785  p :     3.175193
      px      :     1.025794
      py      :     1.083614
      dz2     :     0.007526  d :     0.081413
      dxz     :     0.012944
      dyz     :     0.018257
      dx2y2   :     0.023227
      dxy     :     0.019458
 18 C s       :     2.867389  s :     2.867389
      pz      :     1.025088  p :     3.105986
      px      :     1.030641
      py      :     1.050257
      dz2     :     0.016023  d :     0.092530
      dxz     :     0.013646
      dyz     :     0.018671
      dx2y2   :     0.021996
      dxy     :     0.022193
 19 C s       :     2.867291  s :     2.867291
      pz      :     1.022436  p :     3.082783
      px      :     1.025668
      py      :     1.034678
      dz2     :     0.017833  d :     0.102982
      dxz     :     0.015187
      dyz     :     0.022934
      dx2y2   :     0.020105
      dxy     :     0.026924
 20 C s       :     2.905964  s :     2.905964
      pz      :     1.064147  p :     3.185579
      px      :     1.086925
      py      :     1.034507
      dz2     :     0.017001  d :     0.106624
      dxz     :     0.020751
      dyz     :     0.020967
      dx2y2   :     0.028997
      dxy     :     0.018908
 21 H s       :     0.900730  s :     0.900730
      pz      :     0.019301  p :     0.069530
      px      :     0.035521
      py      :     0.014708
 22 C s       :     2.840654  s :     2.840654
      pz      :     1.047178  p :     3.109306
      px      :     1.047172
      py      :     1.014955
      dz2     :     0.014558  d :     0.087681
      dxz     :     0.020142
      dyz     :     0.020565
      dx2y2   :     0.014462
      dxy     :     0.017953
 23 H s       :     0.904031  s :     0.904031
      pz      :     0.012757  p :     0.059214
      px      :     0.029061
      py      :     0.017396
 24 H s       :     0.906030  s :     0.906030
      pz      :     0.029090  p :     0.066680
      px      :     0.017306
      py      :     0.020284
 25 C s       :     2.831887  s :     2.831887
      pz      :     1.041437  p :     3.115872
      px      :     1.040170
      py      :     1.034266
      dz2     :     0.013765  d :     0.089471
      dxz     :     0.024299
      dyz     :     0.016218
      dx2y2   :     0.012468
      dxy     :     0.022722
 26 H s       :     0.907000  s :     0.907000
      pz      :     0.015769  p :     0.068578
      px      :     0.029355
      py      :     0.023454
 27 H s       :     0.905611  s :     0.905611
      pz      :     0.027609  p :     0.067012
      px      :     0.020493
      py      :     0.018910
 28 C s       :     2.827688  s :     2.827688
      pz      :     1.056502  p :     3.163883
      px      :     1.079477
      py      :     1.027904
      dz2     :     0.015982  d :     0.071121
      dxz     :     0.014666
      dyz     :     0.011512
      dx2y2   :     0.008319
      dxy     :     0.020641
 29 H s       :     0.899711  s :     0.899711
      pz      :     0.036694  p :     0.070012
      px      :     0.017242
      py      :     0.016076
 30 H s       :     0.907535  s :     0.907535
      pz      :     0.014740  p :     0.067359
      px      :     0.025868
      py      :     0.026752
 31 H s       :     0.906638  s :     0.906638
      pz      :     0.024666  p :     0.068783
      px      :     0.027042
      py      :     0.017075
 32 H s       :     0.899079  s :     0.899079
      pz      :     0.034107  p :     0.076820
      px      :     0.027147
      py      :     0.015567
 33 H s       :     0.899958  s :     0.899958
      pz      :     0.028155  p :     0.076975
      px      :     0.022067
      py      :     0.026753


                      *****************************
                      * MAYER POPULATION ANALYSIS *
                      *****************************

  NA   - Mulliken gross atomic population
  ZA   - Total nuclear charge
  QA   - Mulliken gross atomic charge
  VA   - Mayer's total valence
  BVA  - Mayer's bonded valence
  FA   - Mayer's free valence

  ATOM       NA         ZA         QA         VA         BVA        FA
  0 S     15.8945    16.0000     0.1055     2.4871     2.4871    -0.0000
  1 C      6.1370     6.0000    -0.1370     3.8431     3.8431    -0.0000
  2 C      6.0767     6.0000    -0.0767     3.9570     3.9570     0.0000
  3 C      5.9763     6.0000     0.0237     3.9130     3.9130     0.0000
  4 C      6.1742     6.0000    -0.1742     3.9503     3.9503    -0.0000
  5 H      0.9802     1.0000     0.0198     1.0034     1.0034    -0.0000
  6 C      5.9219     6.0000     0.0781     3.9647     3.9647     0.0000
  7 H      0.9652     1.0000     0.0348     0.9875     0.9875    -0.0000
  8 H      0.9487     1.0000     0.0513     0.9763     0.9763     0.0000
  9 C      6.1223     6.0000    -0.1223     4.0670     4.0670     0.0000
 10 H      0.9622     1.0000     0.0378     0.9770     0.9770     0.0000
 11 H      0.9699     1.0000     0.0301     0.9750     0.9750     0.0000
 12 C      6.0689     6.0000    -0.0689     3.9742     3.9742     0.0000
 13 H      0.9497     1.0000     0.0503     0.9840     0.9840     0.0000
 14 H      0.9657     1.0000     0.0343     0.9932     0.9932     0.0000
 15 H      0.9657     1.0000     0.0343     0.9886     0.9886     0.0000
 16 S     15.8657    16.0000     0.1343     2.4863     2.4863    -0.0000
 17 C      6.0941     6.0000    -0.0941     3.8298     3.8298    -0.0000
 18 C      6.0157     6.0000    -0.0157     3.9622     3.9622    -0.0000
 19 C      6.0476     6.0000    -0.0476     4.0342     4.0342    -0.0000
 20 C      6.1753     6.0000    -0.1753     3.9261     3.9261     0.0000
 21 H      0.9878     1.0000     0.0122     0.9953     0.9953    -0.0000
 22 C      5.9412     6.0000     0.0588     3.9425     3.9425    -0.0000
 23 H      0.9725     1.0000     0.0275     1.0004     1.0004    -0.0000
 24 H      0.9804     1.0000     0.0196     0.9852     0.9852     0.0000
 25 C      6.0718     6.0000    -0.0718     4.0852     4.0852     0.0000
 26 H      0.9717     1.0000     0.0283     0.9812     0.9812     0.0000
 27 H      0.9678     1.0000     0.0322     0.9799     0.9799     0.0000
 28 C      6.0222     6.0000    -0.0222     3.9919     3.9919     0.0000
 29 H      0.9672     1.0000     0.0328     0.9877     0.9877     0.0000
 30 H      0.9744     1.0000     0.0256     0.9930     0.9930    -0.0000
 31 H      0.9626     1.0000     0.0374     0.9879     0.9879    -0.0000
 32 H      0.9516     1.0000     0.0484     1.0047     1.0047    -0.0000
 33 H      0.9513     1.0000     0.0487     0.9972     0.9972    -0.0000

  Mayer bond orders larger than 0.100000
B(  0-S ,  1-C ) :   1.1350 B(  0-S ,  4-C ) :   1.1501 B(  1-C ,  2-C ) :   1.6031 
B(  1-C , 32-H ) :   0.9760 B(  2-C ,  3-C ) :   1.2306 B(  2-C ,  6-C ) :   1.0075 
B(  3-C ,  4-C ) :   1.5761 B(  3-C ,  5-H ) :   0.9837 B(  4-C , 20-C ) :   1.0581 
B(  6-C ,  7-H ) :   0.9511 B(  6-C ,  8-H ) :   0.9393 B(  6-C ,  9-C ) :   1.0655 
B(  9-C , 10-H ) :   0.9576 B(  9-C , 11-H ) :   0.9625 B(  9-C , 12-C ) :   1.0601 
B( 12-C , 13-H ) :   0.9747 B( 12-C , 14-H ) :   0.9773 B( 12-C , 15-H ) :   0.9758 
B( 16-S , 17-C ) :   1.1408 B( 16-S , 20-C ) :   1.1594 B( 17-C , 18-C ) :   1.6097 
B( 17-C , 33-H ) :   0.9702 B( 18-C , 19-C ) :   1.2634 B( 18-C , 21-H ) :   0.9839 
B( 19-C , 20-C ) :   1.5659 B( 19-C , 22-C ) :   1.0390 B( 22-C , 23-H ) :   0.9255 
B( 22-C , 24-H ) :   0.9315 B( 22-C , 25-C ) :   1.0681 B( 25-C , 26-H ) :   0.9551 
B( 25-C , 27-H ) :   0.9552 B( 25-C , 28-C ) :   1.0775 B( 28-C , 29-H ) :   0.9735 
B( 28-C , 30-H ) :   0.9742 B( 28-C , 31-H ) :   0.9765 

-------
TIMINGS
-------

Total SCF time: 0 days 0 hours 0 min 26 sec 

Total time                  ....      26.874 sec
Sum of individual times     ....      26.033 sec  ( 96.9%)

Fock matrix formation       ....      24.204 sec  ( 90.1%)
  XC integration            ....       1.717 sec  (  7.1% of F)
    Basis function eval.    ....       0.209 sec  ( 12.2% of XC)
    Density eval.           ....       0.151 sec  (  8.8% of XC)
    XC-Functional eval.     ....       0.164 sec  (  9.6% of XC)
    XC-Potential eval.      ....       0.186 sec  ( 10.8% of XC)
Diagonalization             ....       0.121 sec  (  0.5%)
Density matrix formation    ....       0.015 sec  (  0.1%)
Population analysis         ....       0.051 sec  (  0.2%)
Initial guess               ....       0.194 sec  (  0.7%)
Orbital Transformation      ....       0.000 sec  (  0.0%)
Orbital Orthonormalization  ....       0.000 sec  (  0.0%)
DIIS solution               ....       0.139 sec  (  0.5%)
SOSCF solution              ....       0.108 sec  (  0.4%)
Grid generation             ....       1.200 sec  (  4.5%)


-------------------------------------------------------------------------------
                          DFT DISPERSION CORRECTION                            
                                                                               
                              DFTD3 V3.1  Rev 1                                
                              USING zero damping                               
-------------------------------------------------------------------------------
The omegaB97X-D3 functional is recognized. Fit by Chai et al.
Active option DFTDOPT                   ...         3   

molecular C6(AA) [au] = 14211.600315 


            DFT-D V3
 parameters
 s6 scaling factor         :     1.0000 
 rs6 scaling factor        :     1.2810 
 s8 scaling factor         :     1.0000 
 rs8 scaling factor        :     1.0940 
 Damping factor alpha6     :    14.0000 
 Damping factor alpha8     :    16.0000 
 ad hoc parameters k1-k3   :    16.0000     1.3333    -4.0000 

 Edisp/kcal,au: -9.275613328169  -0.014781629158 
 E6   /kcal   :  -4.335091578 
 E8   /kcal   :  -4.940521750 
 % E8         :  53.263558706 

-------------------------   ----------------
Dispersion correction           -0.014781629
-------------------------   ----------------


-------------------------   --------------------
FINAL SINGLE POINT ENERGY     -1339.879511627047
-------------------------   --------------------


                            ***************************************
                            *     ORCA property calculations      *
                            ***************************************

                                    ---------------------
                                    Active property flags
                                    ---------------------
   (+) Dipole Moment


------------------------------------------------------------------------------
                       ORCA ELECTRIC PROPERTIES CALCULATION
------------------------------------------------------------------------------

Dipole Moment Calculation                       ... on
Quadrupole Moment Calculation                   ... off
Polarizability Calculation                      ... off
GBWName                                         ... config_6810.gbw
Electron density file                           ... config_6810.scfp
The origin for moment calculation is the CENTER OF MASS  = (-98.799773, 52.764138 174.007909)

-------------
DIPOLE MOMENT
-------------
                                X             Y             Z
Electronic contribution:      3.82696      27.91496      -8.64432
Nuclear contribution   :     -3.94498     -28.44173       8.64910
                        -----------------------------------------
Total Dipole Moment    :     -0.11802      -0.52677       0.00478
                        -----------------------------------------
Magnitude (a.u.)       :      0.53985
Magnitude (Debye)      :      1.37218



--------------------
Rotational spectrum 
--------------------
 
Rotational constants in cm-1:     0.017169     0.009689     0.007241 
Rotational constants in MHz :   514.699734   290.464220   217.067286 

 Dipole components along the rotational axes: 
x,y,z [a.u.] :     0.184609    -0.476736     0.173424 
x,y,z [Debye]:     0.469238    -1.211767     0.440809 

 

Timings for individual modules:

Sum of individual times         ...       28.101 sec (=   0.468 min)
GTO integral calculation        ...        0.907 sec (=   0.015 min)   3.2 %
SCF iterations                  ...       27.195 sec (=   0.453 min)  96.8 %
                             ****ORCA TERMINATED NORMALLY****
TOTAL RUN TIME: 0 days 0 hours 0 minutes 28 seconds 803 msec
