
                                 *****************
                                 * O   R   C   A *
                                 *****************

           --- An Ab Initio, DFT and Semiempirical electronic structure package ---

                  #######################################################
                  #                        -***-                        #
                  #          Department of theory and spectroscopy      #
                  #               Directorship: Frank Neese             #
                  #        Max Planck Institute fuer Kohlenforschung    #
                  #                Kaiser Wilhelm Platz 1               #
                  #                 D-45470 Muelheim/Ruhr               #
                  #                      Germany                        #
                  #                                                     #
                  #                  All rights reserved                #
                  #                        -***-                        #
                  #######################################################


                         Program Version 4.2.1 -  RELEASE  -


 With contributions from (in alphabetic order):
   Daniel Aravena         : Magnetic Suceptibility
   Michael Atanasov       : Ab Initio Ligand Field Theory (pilot matlab implementation)
   Alexander A. Auer      : GIAO ZORA, VPT2
   Ute Becker             : Parallelization
   Giovanni Bistoni       : ED, misc. LED, open-shell LED, HFLD
   Martin Brehm           : Molecular dynamics
   Dmytro Bykov           : SCF Hessian
   Vijay G. Chilkuri      : MRCI spin determinant printing, contributions to CSF-ICE
   Dipayan Datta          : RHF DLPNO-CCSD density
   Achintya Kumar Dutta   : EOM-CC, STEOM-CC
   Dmitry Ganyushin       : Spin-Orbit,Spin-Spin,Magnetic field MRCI
   Miquel Garcia          : C-PCM Hessian, Gaussian charge scheme
   Yang Guo               : DLPNO-NEVPT2, CIM, IAO-localization
   Andreas Hansen         : Spin unrestricted coupled pair/coupled cluster methods
   Benjamin Helmich-Paris : CASSCF linear response (MC-RPA)
   Lee Huntington         : MR-EOM, pCC
   Robert Izsak           : Overlap fitted RIJCOSX, COSX-SCS-MP3, EOM
   Christian Kollmar      : KDIIS, OOCD, Brueckner-CCSD(T), CCSD density
   Simone Kossmann        : Meta GGA functionals, TD-DFT gradient, OOMP2, MP2 Hessian
   Martin Krupicka        : AUTO-CI
   Lucas Lang             : DCDCAS
   Dagmar Lenk            : GEPOL surface, SMD
   Dimitrios Liakos       : Extrapolation schemes; Compound Job, initial MDCI parallelization
   Dimitrios Manganas     : Further ROCIS development; embedding schemes
   Dimitrios Pantazis     : SARC Basis sets
   Taras Petrenko         : DFT Hessian,TD-DFT gradient, ASA, ECA, R-Raman, ABS, FL, XAS/XES, NRVS
   Peter Pinski           : DLPNO-MP2, DLPNO-MP2 Gradient
   Christoph Reimann      : Effective Core Potentials
   Marius Retegan         : Local ZFS, SOC
   Christoph Riplinger    : Optimizer, TS searches, QM/MM, DLPNO-CCSD(T), (RO)-DLPNO pert. Triples
   Tobias Risthaus        : Range-separated hybrids, TD-DFT gradient, RPA, STAB
   Michael Roemelt        : Original ROCIS implementation
   Masaaki Saitow         : Open-shell DLPNO-CCSD energy and density
   Barbara Sandhoefer     : DKH picture change effects
   Avijit Sen             : IP-ROCIS
   Kantharuban Sivalingam : CASSCF convergence, NEVPT2, FIC-MRCI
   Bernardo de Souza      : ESD, SOC TD-DFT
   Georgi Stoychev        : AutoAux, RI-MP2 NMR
   Willem Van den Heuvel  : Paramagnetic NMR
   Boris Wezisla          : Elementary symmetry handling
   Frank Wennmohs         : Technical directorship


 We gratefully acknowledge several colleagues who have allowed us to
 interface, adapt or use parts of their codes:
   Stefan Grimme, W. Hujo, H. Kruse,             : VdW corrections, initial TS optimization,
                  C. Bannwarth                     DFT functionals, gCP, sTDA/sTD-DF
   Ed Valeev, F. Pavosevic, A. Kumar             : LibInt (2-el integral package), F12 methods
   Garnet Chan, S. Sharma, J. Yang, R. Olivares  : DMRG
   Ulf Ekstrom                                   : XCFun DFT Library
   Mihaly Kallay                                 : mrcc  (arbitrary order and MRCC methods)
   Andreas Klamt, Michael Diedenhofen            : otool_cosmo (COSMO solvation model)
   Jiri Pittner, Ondrej Demel                    : Mk-CCSD
   Frank Weinhold                                : gennbo (NPA and NBO analysis)
   Christopher J. Cramer and Donald G. Truhlar   : smd solvation model
   Lars Goerigk                                  : TD-DFT with DH, B97 family of functionals
   V. Asgeirsson, H. Jonsson                     : NEB implementation
   FAccTs GmbH                                   : IRC, NEB, NEB-TS, Multilevel, MM, QM/MM, CI optimization
   S Lehtola, MJT Oliveira, MAL Marques          : LibXC Library


 Your calculation uses the libint2 library for the computation of 2-el integrals
 For citations please refer to: http://libint.valeyev.net

 Your ORCA version has been built with support for libXC version: 4.2.3
 For citations please refer to: https://tddft.org/programs/libxc/

 This ORCA versions uses:
   CBLAS   interface :  Fast vector & matrix operations
   LAPACKE interface :  Fast linear algebra routines
   SCALAPACK package :  Parallel linear algebra routines


Your calculation utilizes the atom-pairwise dispersion correction
with the zero-damping scheme (D30)
Cite in your paper:
S.Grimme, J.Antony, S.Ehrlich and H.Krieg, J.Chem.Phys., 132, (2010), 154104 
   

XCFun DFT library Copyright 2009-2010 Ulf Ekstrom and contributors.
See http://admol.org/xcfun for more information. This is free soft-
ware; see the source code for copying conditions. There is ABSOLUTELY
NO WARRANTY; not even for MERCHANTABILITY or FITNESS FOR A PARTICULAR
PURPOSE. For details see the documentation. Scientific users of this 
library should cite U. Ekstrom, L. Visscher, R. Bast, A. J. Thorvald-
sen and K. Ruud; J.Chem.Theor.Comp. 2010, DOI: 10.1021/ct100117s
XCFun Version 0.99 
----- Orbital basis set information -----
Your calculation utilizes the basis: def2-SVP
   F. Weigend and R. Ahlrichs, Phys. Chem. Chem. Phys. 7, 3297 (2005).

================================================================================
                                        WARNINGS
                       Please study these warnings very carefully!
================================================================================


INFO   : the flag for use of LIBINT has been found!

================================================================================
                                       INPUT FILE
================================================================================
NAME = config_6437.inp
|  1> ! wB97X-D3 SP def2-SVP
|  2> %pal
|  3> nprocs 16
|  4> end
|  5> 
|  6> * xyz 0 1
|  7> S 	 -37.2268 	 30.0051 	 79.7808 	 
|  8> C 	 -36.3596 	 30.5573 	 78.3031 	 
|  9> C 	 -36.2402 	 31.974 	 78.3802 	 
| 10> C 	 -37.0249 	 32.585 	 79.4761 	 
| 11> C 	 -37.7115 	 31.6307 	 80.2572 	 
| 12> H 	 -36.941 	 33.6279 	 79.7509 	 
| 13> C 	 -35.5105 	 32.9228 	 77.4655 	 
| 14> H 	 -34.7386 	 32.3927 	 76.8954 	 
| 15> H 	 -34.8245 	 33.4981 	 78.0821 	 
| 16> C 	 -36.4794 	 33.7976 	 76.6639 	 
| 17> H 	 -37.0217 	 33.1846 	 75.9418 	 
| 18> H 	 -37.2776 	 34.1886 	 77.3389 	 
| 19> C 	 -35.7245 	 34.9203 	 75.8556 	 
| 20> H 	 -35.1136 	 34.5743 	 74.9897 	 
| 21> H 	 -36.4229 	 35.6254 	 75.4235 	 
| 22> H 	 -35.2112 	 35.5892 	 76.4683 	 
| 23> S 	 -37.6095 	 31.4256 	 82.9731 	 
| 24> C 	 -38.9276 	 31.9142 	 83.9558 	 
| 25> C 	 -39.926 	 32.4697 	 83.1806 	 
| 26> C 	 -39.6201 	 32.4495 	 81.7698 	 
| 27> C 	 -38.382 	 31.8382 	 81.5427 	 
| 28> H 	 -40.8399 	 32.8269 	 83.6823 	 
| 29> C 	 -40.5855 	 33.0481 	 80.7803 	 
| 30> H 	 -40.1259 	 33.8016 	 80.0999 	 
| 31> H 	 -41.3137 	 33.6624 	 81.3898 	 
| 32> C 	 -41.3788 	 32.0253 	 79.8708 	 
| 33> H 	 -42.0549 	 31.5685 	 80.6049 	 
| 34> H 	 -40.702 	 31.3601 	 79.3799 	 
| 35> C 	 -42.268 	 32.7139 	 78.8582 	 
| 36> H 	 -43.0864 	 32.1876 	 78.3859 	 
| 37> H 	 -41.7346 	 33.1641 	 78.1 	 
| 38> H 	 -42.7171 	 33.5838 	 79.2395 	 
| 39> H 	 -35.6572 	 29.9034 	 77.7185 	 
| 40> H 	 -38.9682 	 32.0903 	 85.0712 	 
| 41> *
| 42> 
| 43>                          ****END OF INPUT****
================================================================================

                       ****************************
                       * Single Point Calculation *
                       ****************************

---------------------------------
CARTESIAN COORDINATES (ANGSTROEM)
---------------------------------
  S    -37.226800   30.005100   79.780800
  C    -36.359600   30.557300   78.303100
  C    -36.240200   31.974000   78.380200
  C    -37.024900   32.585000   79.476100
  C    -37.711500   31.630700   80.257200
  H    -36.941000   33.627900   79.750900
  C    -35.510500   32.922800   77.465500
  H    -34.738600   32.392700   76.895400
  H    -34.824500   33.498100   78.082100
  C    -36.479400   33.797600   76.663900
  H    -37.021700   33.184600   75.941800
  H    -37.277600   34.188600   77.338900
  C    -35.724500   34.920300   75.855600
  H    -35.113600   34.574300   74.989700
  H    -36.422900   35.625400   75.423500
  H    -35.211200   35.589200   76.468300
  S    -37.609500   31.425600   82.973100
  C    -38.927600   31.914200   83.955800
  C    -39.926000   32.469700   83.180600
  C    -39.620100   32.449500   81.769800
  C    -38.382000   31.838200   81.542700
  H    -40.839900   32.826900   83.682300
  C    -40.585500   33.048100   80.780300
  H    -40.125900   33.801600   80.099900
  H    -41.313700   33.662400   81.389800
  C    -41.378800   32.025300   79.870800
  H    -42.054900   31.568500   80.604900
  H    -40.702000   31.360100   79.379900
  C    -42.268000   32.713900   78.858200
  H    -43.086400   32.187600   78.385900
  H    -41.734600   33.164100   78.100000
  H    -42.717100   33.583800   79.239500
  H    -35.657200   29.903400   77.718500
  H    -38.968200   32.090300   85.071200

----------------------------
CARTESIAN COORDINATES (A.U.)
----------------------------
  NO LB      ZA    FRAG     MASS         X           Y           Z
   0 S    16.0000    0    32.060  -70.348457   56.701422  150.763863
   1 C     6.0000    0    12.011  -68.709686   57.744928  147.971414
   2 C     6.0000    0    12.011  -68.484053   60.422103  148.117112
   3 C     6.0000    0    12.011  -69.966921   61.576726  150.188063
   4 C     6.0000    0    12.011  -71.264407   59.773360  151.664128
   5 H     1.0000    0     1.008  -69.808373   63.547521  150.707360
   6 C     6.0000    0    12.011  -67.105120   62.215076  146.388580
   7 H     1.0000    0     1.008  -65.646440   61.213332  145.311247
   8 H     1.0000    0     1.008  -65.808768   63.302235  147.553785
   9 C     6.0000    0    12.011  -68.936076   63.868208  144.873775
  10 H     1.0000    0     1.008  -69.960874   62.709806  143.509204
  11 H     1.0000    0     1.008  -70.444455   64.607091  146.149340
  12 C     6.0000    0    12.011  -67.509521   65.989804  143.346310
  13 H     1.0000    0     1.008  -66.355088   65.335958  141.709996
  14 H     1.0000    0     1.008  -68.829306   67.322249  142.529759
  15 H     1.0000    0     1.008  -66.539525   67.253841  144.504145
  16 S    16.0000    0    32.060  -71.071655   59.385778  156.796435
  17 C     6.0000    0    12.011  -73.562503   60.309098  158.653469
  18 C     6.0000    0    12.011  -75.449206   61.358841  157.188554
  19 C     6.0000    0    12.011  -74.871138   61.320668  154.522528
  20 C     6.0000    0    12.011  -72.531468   60.165479  154.093371
  21 H     1.0000    0     1.008  -77.176226   62.033851  158.136629
  22 C     6.0000    0    12.011  -76.695480   62.451858  152.652644
  23 H     1.0000    0     1.008  -75.826962   63.875767  151.366874
  24 H     1.0000    0     1.008  -78.071579   63.612717  153.804432
  25 C     6.0000    0    12.011  -78.194600   60.519046  150.933938
  26 H     1.0000    0     1.008  -79.472244   59.655819  152.321186
  27 H     1.0000    0     1.008  -76.915633   59.262001  150.006272
  28 C     6.0000    0    12.011  -79.874944   61.820312  149.020401
  29 H     1.0000    0     1.008  -81.421496   60.825749  148.127884
  30 H     1.0000    0     1.008  -78.866964   62.671066  147.587611
  31 H     1.0000    0     1.008  -80.723620   63.464185  149.740954
  32 H     1.0000    0     1.008  -67.382343   56.509236  146.866681
  33 H     1.0000    0     1.008  -73.639226   60.641879  160.761270

--------------------------------
INTERNAL COORDINATES (ANGSTROEM)
--------------------------------
 S      0   0   0     0.000000000000     0.00000000     0.00000000
 C      1   0   0     1.800154984994     0.00000000     0.00000000
 C      2   1   0     1.423811665917   107.52768901     0.00000000
 C      3   2   1     1.479889151254   113.98143866   350.40797775
 C      4   3   2     1.411462100093   112.86725562     1.70010958
 H      4   3   2     1.081755360514   123.02681370   171.69238969
 C      3   2   1     1.506439384775   129.37729859   174.67017751
 H      7   3   2     1.096289026671   110.62605808   338.63621078
 H      7   3   2     1.087088611844   107.13238559   235.03595647
 C      7   3   2     1.531863182533   111.77960059   110.50539647
 H     10   7   3     1.091460810107   109.86040785   291.40454946
 H     10   7   3     1.116077613789   109.62947714    45.07623881
 C     10   7   3     1.575968968603   111.85379000   172.25223896
 H     13  10   7     1.114763481641   116.08989288    70.29189426
 H     13  10   7     1.082422736273   111.08395197   189.10712947
 H     13  10   7     1.042259751693   113.05366665   297.80601174
 S      5   4   3     2.725542665232   125.74035969   127.95817476
 C     17   5   4     1.715172545256   121.38066828   106.26967834
 C     18  17   5     1.380694698331   110.40401413   356.14477424
 C     19  18  17     1.443724173795   112.94254438     1.98837957
 C     20  19  18     1.399340455357   110.62010525     1.19947460
 H     19  18  17     1.102047158701   118.32465041   179.81403020
 C     20  19  18     1.506462535213   120.03410076   181.56093473
 H     23  20  19     1.114422976253   113.91629860   126.58016547
 H     23  20  19     1.130986286389   105.92991416    13.92542270
 C     23  20  19     1.581971864478   116.23659324   251.73844528
 H     26  23  20     1.097579272763   101.15440429    70.38256240
 H     26  23  20     1.068425051185   110.42791575   306.99801949
 C     26  23  20     1.513342446375   112.65273584   183.08672150
 H     29  26  23     1.081590282871   121.02202483   199.25922802
 H     29  26  23     1.030564330840   112.76388793    71.64050268
 H     29  26  23     1.050621963410   112.64832501   322.74781539
 H      2   1   3     1.123702865530   123.34461502   154.71989818
 H     18  17   5     1.129945454436   129.61152810   193.85533226

---------------------------
INTERNAL COORDINATES (A.U.)
---------------------------
 S      0   0   0     0.000000000000     0.00000000     0.00000000
 C      1   0   0     3.401799920252     0.00000000     0.00000000
 C      2   1   0     2.690614114864   107.52768901     0.00000000
 C      3   2   1     2.796585204432   113.98143866   350.40797775
 C      4   3   2     2.667276817586   112.86725562     1.70010958
 H      4   3   2     2.044221375272   123.02681370   171.69238969
 C      3   2   1     2.846757874577   129.37729859   174.67017751
 H      7   3   2     2.071686024032   110.62605808   338.63621078
 H      7   3   2     2.054299759689   107.13238559   235.03595647
 C      7   3   2     2.894801889624   111.77960059   110.50539647
 H     10   7   3     2.062562017011   109.86040785   291.40454946
 H     10   7   3     2.109081034261   109.62947714    45.07623881
 C     10   7   3     2.978149746218   111.85379000   172.25223896
 H     13  10   7     2.106597684398   116.08989288    70.29189426
 H     13  10   7     2.045482532685   111.08395197   189.10712947
 H     13  10   7     1.969585491109   113.05366665   297.80601174
 S      5   4   3     5.150529203606   125.74035969   127.95817476
 C     17   5   4     3.241206382955   121.38066828   106.26967834
 C     18  17   5     2.609134854403   110.40401413   356.14477424
 C     19  18  17     2.728243301394   112.94254438     1.98837957
 C     20  19  18     2.644370228742   110.62010525     1.19947460
 H     19  18  17     2.082567316610   118.32465041   179.81403020
 C     20  19  18     2.846801622565   120.03410076   181.56093473
 H     23  20  19     2.105954222467   113.91629860   126.58016547
 H     23  20  19     2.137254342496   105.92991416    13.92542270
 C     23  20  19     2.989493575432   116.23659324   251.73844528
 H     26  23  20     2.074124235791   101.15440429    70.38256240
 H     26  23  20     2.019030741361   110.42791575   306.99801949
 C     26  23  20     2.859802770487   112.65273584   183.08672150
 H     29  26  23     2.043909423736   121.02202483   199.25922802
 H     29  26  23     1.947484348676   112.76388793    71.64050268
 H     29  26  23     1.985387781128   112.64832501   322.74781539
 H      2   1   3     2.123490671754   123.34461502   154.71989818
 H     18  17   5     2.135287455153   129.61152810   193.85533226

---------------------
BASIS SET INFORMATION
---------------------
There are 3 groups of distinct atoms

 Group   1 Type S   : 10s7p1d contracted to 4s3p1d pattern {5311/511/1}
 Group   2 Type C   : 7s4p1d contracted to 3s2p1d pattern {511/31/1}
 Group   3 Type H   : 4s1p contracted to 2s1p pattern {31/1}

Atom   0S    basis set group =>   1
Atom   1C    basis set group =>   2
Atom   2C    basis set group =>   2
Atom   3C    basis set group =>   2
Atom   4C    basis set group =>   2
Atom   5H    basis set group =>   3
Atom   6C    basis set group =>   2
Atom   7H    basis set group =>   3
Atom   8H    basis set group =>   3
Atom   9C    basis set group =>   2
Atom  10H    basis set group =>   3
Atom  11H    basis set group =>   3
Atom  12C    basis set group =>   2
Atom  13H    basis set group =>   3
Atom  14H    basis set group =>   3
Atom  15H    basis set group =>   3
Atom  16S    basis set group =>   1
Atom  17C    basis set group =>   2
Atom  18C    basis set group =>   2
Atom  19C    basis set group =>   2
Atom  20C    basis set group =>   2
Atom  21H    basis set group =>   3
Atom  22C    basis set group =>   2
Atom  23H    basis set group =>   3
Atom  24H    basis set group =>   3
Atom  25C    basis set group =>   2
Atom  26H    basis set group =>   3
Atom  27H    basis set group =>   3
Atom  28C    basis set group =>   2
Atom  29H    basis set group =>   3
Atom  30H    basis set group =>   3
Atom  31H    basis set group =>   3
Atom  32H    basis set group =>   3
Atom  33H    basis set group =>   3


           ************************************************************
           *        Program running with 16 parallel MPI-processes    *
           *              working on a common directory               *
           ************************************************************
------------------------------------------------------------------------------
                           ORCA GTO INTEGRAL CALCULATION
------------------------------------------------------------------------------

                         BASIS SET STATISTICS AND STARTUP INFO

 # of primitive gaussian shells          ...  294
 # of primitive gaussian functions       ...  534
 # of contracted shells                  ...  154
 # of contracted basis functions         ...  322
 Highest angular momentum                ...    2
 Maximum contraction depth               ...    5
 Integral package used                   ... LIBINT
 Integral threshhold            Thresh   ...  1.000e-10
 Primitive cut-off              TCut     ...  1.000e-11


------------------------------ INTEGRAL EVALUATION ----------------------------


 * One electron integrals 
 Pre-screening matrix                    ... done
 Shell pair data                         ... done (   0.003 sec)



           ************************************************************
           *        Program running with 16 parallel MPI-processes    *
           *              working on a common directory               *
           ************************************************************
-------------------------------------------------------------------------------
                                 ORCA SCF
-------------------------------------------------------------------------------

------------
SCF SETTINGS
------------
Hamiltonian:
 Density Functional     Method          .... DFT(GTOs)
 Exchange Functional    Exchange        .... WB97X-D3
 Correlation Functional Correlation     .... WB97X-D3
 Gradients option       PostSCFGGA      .... off
 Hybrid DFT is turned on
   Fraction HF Exchange ScalHFX         ....  0.195728
   Scaling of DF-GGA-X  ScalDFX         ....  0.000000
   Scaling of DF-GGA-C  ScalDFC         ....  1.000000
   Scaling of DF-LDA-C  ScalLDAC        ....  1.000000
   Perturbative correction              ....  0.000000
   Density functional embedding theory  .... OFF
 Long-range corrected/Screened/Range-Separated Hybrid DFT is turned on
   Amount of maximum screened exact exchange              ....  0.804272
   Range separation parameter mu (erf(mu*r12)/r12)        ....  0.250000


General Settings:
 Integral files         IntName         .... config_6437
 Hartree-Fock type      HFTyp           .... RHF
 Total Charge           Charge          ....    0
 Multiplicity           Mult            ....    1
 Number of Electrons    NEL             ....  134
 Basis Dimension        Dim             ....  322
 Nuclear Repulsion      ENuc            ....   1276.0345586010 Eh

Convergence Acceleration:
 DIIS                   CNVDIIS         .... on
   Start iteration      DIISMaxIt       ....    12
   Startup error        DIISStart       ....  0.200000
   # of expansion vecs  DIISMaxEq       ....     5
   Bias factor          DIISBfac        ....   1.050
   Max. coefficient     DIISMaxC        ....  10.000
 Newton-Raphson         CNVNR           .... off
 SOSCF                  CNVSOSCF        .... on
   Start iteration      SOSCFMaxIt      ....   150
   Startup grad/error   SOSCFStart      ....  0.003300
 Level Shifting         CNVShift        .... on
   Level shift para.    LevelShift      ....    0.2500
   Turn off err/grad.   ShiftErr        ....    0.0010
 Zerner damping         CNVZerner       .... off
 Static damping         CNVDamp         .... on
   Fraction old density DampFac         ....    0.7000
   Max. Damping (<1)    DampMax         ....    0.9800
   Min. Damping (>=0)   DampMin         ....    0.0000
   Turn off err/grad.   DampErr         ....    0.1000
 Fernandez-Rico         CNVRico         .... off

SCF Procedure:
 Maximum # iterations   MaxIter         ....   125
 SCF integral mode      SCFMode         .... Direct
   Integral package                     .... LIBINT
 Reset frequency        DirectResetFreq ....    20
 Integral Threshold     Thresh          ....  1.000e-10 Eh
 Primitive CutOff       TCut            ....  1.000e-11 Eh

Convergence Tolerance:
 Convergence Check Mode ConvCheckMode   .... Total+1el-Energy
 Convergence forced     ConvForced      .... 0
 Energy Change          TolE            ....  1.000e-06 Eh
 1-El. energy change                    ....  1.000e-03 Eh
 Orbital Gradient       TolG            ....  5.000e-05
 Orbital Rotation angle TolX            ....  5.000e-05
 DIIS Error             TolErr          ....  1.000e-06


Diagonalization of the overlap matrix:
Smallest eigenvalue                        ... 6.673e-04
Time for diagonalization                   ...    0.015 sec
Threshold for overlap eigenvalues          ... 1.000e-08
Number of eigenvalues below threshold      ... 0
Time for construction of square roots      ...    0.024 sec
Total time needed                          ...    0.040 sec

-------------------
DFT GRID GENERATION
-------------------

General Integration Accuracy     IntAcc      ...  4.340
Radial Grid Type                 RadialGrid  ... Gauss-Chebyshev
Angular Grid (max. acc.)         AngularGrid ... Lebedev-110
Angular grid pruning method      GridPruning ... 3 (G Style)
Weight generation scheme         WeightScheme... Becke
Basis function cutoff            BFCut       ...    1.0000e-10
Integration weight cutoff        WCut        ...    1.0000e-14
Grids for H and He will be reduced by one unit

# of grid points (after initial pruning)     ...  41088 (   0.0 sec)
# of grid points (after weights+screening)   ...  36999 (   0.0 sec)
nearest neighbour list constructed           ...    0.0 sec
Grid point re-assignment to atoms done       ...    0.0 sec
Grid point division into batches done        ...    0.0 sec
Reduced shell lists constructed in    0.1 sec

Total number of grid points                  ...    36999
Total number of batches                      ...      594
Average number of points per batch           ...       62
Average number of grid points per atom       ...     1088
Average number of shells per batch           ...    77.08 (50.05%)
Average number of basis functions per batch  ...   151.64 (47.09%)
Average number of large shells per batch     ...    48.36 (62.74%)
Average number of large basis fcns per batch ...    99.23 (65.44%)
Maximum spatial batch extension              ...  16.26, 12.55, 18.87 au
Average spatial batch extension              ...   0.23,  0.21,  0.21 au

Time for grid setup =    0.165 sec

------------------------------
INITIAL GUESS: MODEL POTENTIAL
------------------------------
Loading Hartree-Fock densities                     ... done
Calculating cut-offs                               ... done
Setting up the integral package                    ... done
Initializing the effective Hamiltonian             ... done
Starting the Coulomb interaction                   ... done (   0.0 sec)
Reading the grid                                   ... done
Mapping shells                                     ... done
Starting the XC term evaluation                    ... done (   0.0 sec)
  promolecular density results
     # of electrons  =    133.992176224
     EX              =   -126.674057089
     EC              =     -4.609172038
     EX+EC           =   -131.283229128
Transforming the Hamiltonian                       ... done (   0.0 sec)
Diagonalizing the Hamiltonian                      ... done (   0.0 sec)
Back transforming the eigenvectors                 ... done (   0.0 sec)
Now organizing SCF variables                       ... done
                      ------------------
                      INITIAL GUESS DONE (   0.4 sec)
                      ------------------
--------------
SCF ITERATIONS
--------------
ITER       Energy         Delta-E        Max-DP      RMS-DP      [F,P]     Damp
               ***  Starting incremental Fock matrix formation  ***
  0  -1339.4319382001   0.000000000000 0.06973013  0.00149307  0.1641960 0.7000
  1  -1339.6078319766  -0.175893776508 0.04680787  0.00109799  0.0993592 0.7000
                               ***Turning on DIIS***
  2  -1339.6944881885  -0.086656211880 0.08769776  0.00209721  0.0514929 0.0000
  3  -1339.8264265642  -0.131938375667 0.04077210  0.00092586  0.0376496 0.0000
  4  -1339.8535568533  -0.027130289197 0.00757853  0.00018910  0.0075946 0.0000
                      *** Initiating the SOSCF procedure ***
                           *** Shutting down DIIS ***
                      *** Re-Reading the Fockian *** 
                      *** Removing any level shift *** 
ITER      Energy       Delta-E        Grad      Rot      Max-DP    RMS-DP
  5  -1339.85437997  -0.0008231167  0.001508  0.001508  0.003256  0.000099
               *** Restarting incremental Fock matrix formation ***
  6  -1339.85455364  -0.0001736723  0.001405  0.003950  0.002311  0.000064
  7  -1339.85461252  -0.0000588746  0.000764  0.004865  0.003063  0.000063
  8  -1339.85462937  -0.0000168575  0.000224  0.000481  0.000699  0.000018
  9  -1339.85463281  -0.0000034338  0.000133  0.000328  0.000224  0.000008
                 **** Energy Check signals convergence ****
              ***Rediagonalizing the Fockian in SOSCF/NRSCF***

               *****************************************************
               *                     SUCCESS                       *
               *           SCF CONVERGED AFTER  10 CYCLES          *
               *****************************************************

Setting up the final grid:

General Integration Accuracy     IntAcc      ...  4.670
Radial Grid Type                 RadialGrid  ... Gauss-Chebyshev
Angular Grid (max. acc.)         AngularGrid ... Lebedev-302
Angular grid pruning method      GridPruning ... 3 (G Style)
Weight generation scheme         WeightScheme... Becke
Basis function cutoff            BFCut       ...    1.0000e-10
Integration weight cutoff        WCut        ...    1.0000e-14
Grids for H and He will be reduced by one unit

# of grid points (after initial pruning)     ... 161752 (   0.0 sec)
# of grid points (after weights+screening)   ... 143222 (   0.2 sec)
nearest neighbour list constructed           ...    0.0 sec
Grid point re-assignment to atoms done       ...    0.0 sec
Grid point division into batches done        ...    0.5 sec
Reduced shell lists constructed in    0.6 sec

Total number of grid points                  ...   143222
Total number of batches                      ...     2258
Average number of points per batch           ...       63
Average number of grid points per atom       ...     4212
Average number of shells per batch           ...    70.99 (46.10%)
Average number of basis functions per batch  ...   139.57 (43.34%)
Average number of large shells per batch     ...    43.83 (61.74%)
Average number of large basis fcns per batch ...    89.59 (64.19%)
Maximum spatial batch extension              ...  16.76, 15.59, 14.43 au
Average spatial batch extension              ...   0.14,  0.14,  0.14 au

Final grid set up in    1.1 sec
Final integration                            ... done (   0.4 sec)
Change in XC energy                          ...     0.006687746
Integrated number of electrons               ...   133.999873925
Previous integrated no of electrons          ...   134.001596262

----------------
TOTAL SCF ENERGY
----------------

Total Energy       :        -1339.84794539 Eh          -36459.11614 eV

Components:
Nuclear Repulsion  :         1276.03455860 Eh           34722.66561 eV
Electronic Energy  :        -2615.88250399 Eh          -71181.78175 eV
One Electron Energy:        -4368.74321699 Eh         -118879.54665 eV
Two Electron Energy:         1752.86071300 Eh           47697.76491 eV

Virial components:
Potential Energy   :        -2671.03448502 Eh          -72682.54345 eV
Kinetic Energy     :         1331.18653963 Eh           36223.42731 eV
Virial Ratio       :            2.00650653


DFT components:
N(Alpha)           :       66.999936962314 electrons
N(Beta)            :       66.999936962314 electrons
N(Total)           :      133.999873924629 electrons
E(XC)              :      -94.191860568021 Eh       
DFET-embed. en.    :        0.000000000000 Eh       

---------------
SCF CONVERGENCE
---------------

  Last Energy change         ...   -3.2977e-07  Tolerance :   1.0000e-06
  Last MAX-Density change    ...    1.4695e-04  Tolerance :   1.0000e-05
  Last RMS-Density change    ...    3.4358e-06  Tolerance :   1.0000e-06
  Last Orbital Gradient      ...    7.1739e-05  Tolerance :   5.0000e-05
  Last Orbital Rotation      ...    1.9003e-04  Tolerance :   5.0000e-05

             **** THE GBW FILE WAS UPDATED (config_6437.gbw) ****
             **** DENSITY FILE WAS UPDATED (config_6437.scfp) ****
             **** ENERGY FILE WAS UPDATED (config_6437.en.tmp) ****
             **** THE GBW FILE WAS UPDATED (config_6437.gbw) ****
             **** DENSITY FILE WAS UPDATED (config_6437.scfp) ****
----------------
ORBITAL ENERGIES
----------------

  NO   OCC          E(Eh)            E(eV) 
   0   2.0000     -88.969526     -2420.9839 
   1   2.0000     -88.965967     -2420.8870 
   2   2.0000     -10.337111      -281.2871 
   3   2.0000     -10.326823      -281.0071 
   4   2.0000     -10.323416      -280.9144 
   5   2.0000     -10.316175      -280.7174 
   6   2.0000     -10.312266      -280.6110 
   7   2.0000     -10.304468      -280.3988 
   8   2.0000     -10.302618      -280.3485 
   9   2.0000     -10.297328      -280.2045 
  10   2.0000     -10.295486      -280.1544 
  11   2.0000     -10.294864      -280.1375 
  12   2.0000     -10.292721      -280.0792 
  13   2.0000     -10.282847      -279.8105 
  14   2.0000     -10.278478      -279.6916 
  15   2.0000     -10.260016      -279.1892 
  16   2.0000      -8.085761      -220.0247 
  17   2.0000      -8.079573      -219.8564 
  18   2.0000      -6.044135      -164.4693 
  19   2.0000      -6.039888      -164.3537 
  20   2.0000      -6.038245      -164.3090 
  21   2.0000      -6.036720      -164.2675 
  22   2.0000      -6.034186      -164.1985 
  23   2.0000      -6.030256      -164.0916 
  24   2.0000      -1.012134       -27.5416 
  25   2.0000      -0.976482       -26.5714 
  26   2.0000      -0.909583       -24.7510 
  27   2.0000      -0.904591       -24.6152 
  28   2.0000      -0.866420       -23.5765 
  29   2.0000      -0.853987       -23.2382 
  30   2.0000      -0.840077       -22.8597 
  31   2.0000      -0.812301       -22.1038 
  32   2.0000      -0.781231       -21.2584 
  33   2.0000      -0.770098       -20.9554 
  34   2.0000      -0.711944       -19.3730 
  35   2.0000      -0.704376       -19.1671 
  36   2.0000      -0.688918       -18.7464 
  37   2.0000      -0.658222       -17.9111 
  38   2.0000      -0.638105       -17.3637 
  39   2.0000      -0.620217       -16.8770 
  40   2.0000      -0.591893       -16.1062 
  41   2.0000      -0.565758       -15.3951 
  42   2.0000      -0.560608       -15.2549 
  43   2.0000      -0.554669       -15.0933 
  44   2.0000      -0.521724       -14.1968 
  45   2.0000      -0.519752       -14.1432 
  46   2.0000      -0.516458       -14.0535 
  47   2.0000      -0.508292       -13.8313 
  48   2.0000      -0.506116       -13.7721 
  49   2.0000      -0.501537       -13.6475 
  50   2.0000      -0.493252       -13.4221 
  51   2.0000      -0.481571       -13.1042 
  52   2.0000      -0.465219       -12.6593 
  53   2.0000      -0.461421       -12.5559 
  54   2.0000      -0.457803       -12.4575 
  55   2.0000      -0.447190       -12.1687 
  56   2.0000      -0.446048       -12.1376 
  57   2.0000      -0.438424       -11.9301 
  58   2.0000      -0.431454       -11.7405 
  59   2.0000      -0.423977       -11.5370 
  60   2.0000      -0.422507       -11.4970 
  61   2.0000      -0.414722       -11.2852 
  62   2.0000      -0.412658       -11.2290 
  63   2.0000      -0.341777        -9.3002 
  64   2.0000      -0.327954        -8.9241 
  65   2.0000      -0.322685        -8.7807 
  66   2.0000      -0.301909        -8.2154 
  67   0.0000       0.032940         0.8964 
  68   0.0000       0.058652         1.5960 
  69   0.0000       0.103235         2.8092 
  70   0.0000       0.119823         3.2605 
  71   0.0000       0.130082         3.5397 
  72   0.0000       0.140008         3.8098 
  73   0.0000       0.148902         4.0518 
  74   0.0000       0.153446         4.1755 
  75   0.0000       0.159536         4.3412 
  76   0.0000       0.168361         4.5813 
  77   0.0000       0.175074         4.7640 
  78   0.0000       0.188585         5.1317 
  79   0.0000       0.194474         5.2919 
  80   0.0000       0.201980         5.4962 
  81   0.0000       0.204392         5.5618 
  82   0.0000       0.206507         5.6193 
  83   0.0000       0.219255         5.9662 
  84   0.0000       0.220317         5.9951 
  85   0.0000       0.228060         6.2058 
  86   0.0000       0.228828         6.2267 
  87   0.0000       0.243454         6.6247 
  88   0.0000       0.244654         6.6574 
  89   0.0000       0.253024         6.8851 
  90   0.0000       0.255413         6.9501 
  91   0.0000       0.260608         7.0915 
  92   0.0000       0.264484         7.1970 
  93   0.0000       0.298534         8.1235 
  94   0.0000       0.309688         8.4271 
  95   0.0000       0.315458         8.5840 
  96   0.0000       0.319181         8.6854 
  97   0.0000       0.326712         8.8903 
  98   0.0000       0.339549         9.2396 
  99   0.0000       0.367123         9.9899 
 100   0.0000       0.383925        10.4471 
 101   0.0000       0.400636        10.9019 
 102   0.0000       0.408968        11.1286 
 103   0.0000       0.413044        11.2395 
 104   0.0000       0.427706        11.6385 
 105   0.0000       0.442436        12.0393 
 106   0.0000       0.456449        12.4206 
 107   0.0000       0.480908        13.0862 
 108   0.0000       0.488757        13.2998 
 109   0.0000       0.497972        13.5505 
 110   0.0000       0.503826        13.7098 
 111   0.0000       0.509223        13.8567 
 112   0.0000       0.516031        14.0419 
 113   0.0000       0.518257        14.1025 
 114   0.0000       0.523125        14.2349 
 115   0.0000       0.529707        14.4141 
 116   0.0000       0.543289        14.7836 
 117   0.0000       0.546826        14.8799 
 118   0.0000       0.551770        15.0144 
 119   0.0000       0.574524        15.6336 
 120   0.0000       0.582274        15.8445 
 121   0.0000       0.592348        16.1186 
 122   0.0000       0.595436        16.2026 
 123   0.0000       0.600390        16.3374 
 124   0.0000       0.611373        16.6363 
 125   0.0000       0.611899        16.6506 
 126   0.0000       0.626292        17.0423 
 127   0.0000       0.645612        17.5680 
 128   0.0000       0.651112        17.7176 
 129   0.0000       0.657781        17.8991 
 130   0.0000       0.669736        18.2244 
 131   0.0000       0.675672        18.3860 
 132   0.0000       0.686647        18.6846 
 133   0.0000       0.692668        18.8485 
 134   0.0000       0.695304        18.9202 
 135   0.0000       0.710959        19.3462 
 136   0.0000       0.712477        19.3875 
 137   0.0000       0.716516        19.4974 
 138   0.0000       0.722247        19.6533 
 139   0.0000       0.733277        19.9535 
 140   0.0000       0.734909        19.9979 
 141   0.0000       0.738536        20.0966 
 142   0.0000       0.746678        20.3181 
 143   0.0000       0.750237        20.4150 
 144   0.0000       0.759642        20.6709 
 145   0.0000       0.766933        20.8693 
 146   0.0000       0.769982        20.9523 
 147   0.0000       0.774048        21.0629 
 148   0.0000       0.777143        21.1471 
 149   0.0000       0.783064        21.3082 
 150   0.0000       0.786730        21.4080 
 151   0.0000       0.790491        21.5104 
 152   0.0000       0.795205        21.6386 
 153   0.0000       0.796788        21.6817 
 154   0.0000       0.803214        21.8566 
 155   0.0000       0.806388        21.9429 
 156   0.0000       0.812414        22.1069 
 157   0.0000       0.817901        22.2562 
 158   0.0000       0.823310        22.4034 
 159   0.0000       0.825130        22.4529 
 160   0.0000       0.828944        22.5567 
 161   0.0000       0.832677        22.6583 
 162   0.0000       0.840977        22.8842 
 163   0.0000       0.847284        23.0558 
 164   0.0000       0.848995        23.1023 
 165   0.0000       0.851503        23.1706 
 166   0.0000       0.870909        23.6986 
 167   0.0000       0.874980        23.8094 
 168   0.0000       0.879931        23.9441 
 169   0.0000       0.899319        24.4717 
 170   0.0000       0.903164        24.5763 
 171   0.0000       0.909353        24.7448 
 172   0.0000       0.934506        25.4292 
 173   0.0000       0.942184        25.6381 
 174   0.0000       0.952449        25.9174 
 175   0.0000       0.969547        26.3827 
 176   0.0000       0.986148        26.8345 
 177   0.0000       1.004979        27.3469 
 178   0.0000       1.024739        27.8846 
 179   0.0000       1.035930        28.1891 
 180   0.0000       1.049650        28.5624 
 181   0.0000       1.068348        29.0712 
 182   0.0000       1.081607        29.4320 
 183   0.0000       1.100939        29.9581 
 184   0.0000       1.108803        30.1721 
 185   0.0000       1.122716        30.5507 
 186   0.0000       1.131506        30.7898 
 187   0.0000       1.141352        31.0578 
 188   0.0000       1.155299        31.4373 
 189   0.0000       1.170715        31.8568 
 190   0.0000       1.184349        32.2278 
 191   0.0000       1.217143        33.1202 
 192   0.0000       1.243332        33.8328 
 193   0.0000       1.264947        34.4210 
 194   0.0000       1.278764        34.7969 
 195   0.0000       1.294184        35.2165 
 196   0.0000       1.303609        35.4730 
 197   0.0000       1.320806        35.9410 
 198   0.0000       1.338754        36.4293 
 199   0.0000       1.380709        37.5710 
 200   0.0000       1.391686        37.8697 
 201   0.0000       1.417814        38.5807 
 202   0.0000       1.436475        39.0885 
 203   0.0000       1.440888        39.2086 
 204   0.0000       1.450613        39.4732 
 205   0.0000       1.455601        39.6089 
 206   0.0000       1.478427        40.2300 
 207   0.0000       1.485132        40.4125 
 208   0.0000       1.507308        41.0159 
 209   0.0000       1.566570        42.6285 
 210   0.0000       1.590565        43.2815 
 211   0.0000       1.617100        44.0035 
 212   0.0000       1.624529        44.2057 
 213   0.0000       1.643900        44.7328 
 214   0.0000       1.663808        45.2745 
 215   0.0000       1.671088        45.4726 
 216   0.0000       1.681472        45.7552 
 217   0.0000       1.713518        46.6272 
 218   0.0000       1.742033        47.4031 
 219   0.0000       1.761173        47.9239 
 220   0.0000       1.785449        48.5845 
 221   0.0000       1.793477        48.8030 
 222   0.0000       1.802810        49.0569 
 223   0.0000       1.809974        49.2519 
 224   0.0000       1.826939        49.7135 
 225   0.0000       1.828558        49.7576 
 226   0.0000       1.830976        49.8234 
 227   0.0000       1.840661        50.0869 
 228   0.0000       1.841254        50.1031 
 229   0.0000       1.850017        50.3415 
 230   0.0000       1.854282        50.4576 
 231   0.0000       1.873130        50.9705 
 232   0.0000       1.878530        51.1174 
 233   0.0000       1.884765        51.2871 
 234   0.0000       1.898119        51.6504 
 235   0.0000       1.904790        51.8320 
 236   0.0000       1.908388        51.9299 
 237   0.0000       1.926436        52.4210 
 238   0.0000       1.933416        52.6109 
 239   0.0000       1.939143        52.7668 
 240   0.0000       1.948937        53.0333 
 241   0.0000       1.960564        53.3497 
 242   0.0000       1.969889        53.6034 
 243   0.0000       1.978367        53.8341 
 244   0.0000       1.982739        53.9531 
 245   0.0000       2.000894        54.4471 
 246   0.0000       2.004485        54.5448 
 247   0.0000       2.016845        54.8811 
 248   0.0000       2.023672        55.0669 
 249   0.0000       2.033030        55.3215 
 250   0.0000       2.039226        55.4902 
 251   0.0000       2.056150        55.9507 
 252   0.0000       2.065557        56.2067 
 253   0.0000       2.076033        56.4917 
 254   0.0000       2.081679        56.6454 
 255   0.0000       2.092795        56.9478 
 256   0.0000       2.099211        57.1224 
 257   0.0000       2.117093        57.6090 
 258   0.0000       2.119123        57.6643 
 259   0.0000       2.127860        57.9020 
 260   0.0000       2.160191        58.7818 
 261   0.0000       2.171335        59.0850 
 262   0.0000       2.188107        59.5414 
 263   0.0000       2.195305        59.7373 
 264   0.0000       2.204839        59.9967 
 265   0.0000       2.215799        60.2950 
 266   0.0000       2.247989        61.1709 
 267   0.0000       2.262471        61.5650 
 268   0.0000       2.289523        62.3011 
 269   0.0000       2.315634        63.0116 
 270   0.0000       2.322757        63.2054 
 271   0.0000       2.346605        63.8544 
 272   0.0000       2.376754        64.6748 
 273   0.0000       2.385311        64.9076 
 274   0.0000       2.400503        65.3210 
 275   0.0000       2.414787        65.7097 
 276   0.0000       2.422129        65.9095 
 277   0.0000       2.453028        66.7503 
 278   0.0000       2.462770        67.0154 
 279   0.0000       2.473158        67.2980 
 280   0.0000       2.480573        67.4998 
 281   0.0000       2.489546        67.7440 
 282   0.0000       2.511884        68.3518 
 283   0.0000       2.520853        68.5959 
 284   0.0000       2.537660        69.0532 
 285   0.0000       2.542952        69.1973 
 286   0.0000       2.562545        69.7304 
 287   0.0000       2.582165        70.2643 
 288   0.0000       2.596130        70.6443 
 289   0.0000       2.618854        71.2626 
 290   0.0000       2.628556        71.5266 
 291   0.0000       2.651753        72.1579 
 292   0.0000       2.668555        72.6151 
 293   0.0000       2.697550        73.4041 
 294   0.0000       2.713614        73.8412 
 295   0.0000       2.735022        74.4237 
 296   0.0000       2.743190        74.6460 
 297   0.0000       2.769896        75.3727 
 298   0.0000       2.779524        75.6347 
 299   0.0000       2.784421        75.7679 
 300   0.0000       2.818811        76.7038 
 301   0.0000       2.848571        77.5136 
 302   0.0000       2.879661        78.3596 
 303   0.0000       2.892054        78.6968 
 304   0.0000       2.920200        79.4627 
 305   0.0000       2.947877        80.2158 
 306   0.0000       2.977309        81.0167 
 307   0.0000       3.013978        82.0145 
 308   0.0000       3.027750        82.3893 
 309   0.0000       3.033511        82.5460 
 310   0.0000       3.049772        82.9885 
 311   0.0000       3.068223        83.4906 
 312   0.0000       3.092644        84.1551 
 313   0.0000       3.120477        84.9125 
 314   0.0000       3.127015        85.0904 
 315   0.0000       3.179070        86.5069 
 316   0.0000       3.198353        87.0316 
 317   0.0000       3.219794        87.6151 
 318   0.0000       3.228995        87.8654 
 319   0.0000       3.254890        88.5701 
 320   0.0000       3.304856        89.9297 
 321   0.0000       3.374826        91.8337 

                    ********************************
                    * MULLIKEN POPULATION ANALYSIS *
                    ********************************

-----------------------
MULLIKEN ATOMIC CHARGES
-----------------------
   0 S :    0.089310
   1 C :   -0.120750
   2 C :   -0.129556
   3 C :    0.035372
   4 C :   -0.153168
   5 H :    0.028996
   6 C :    0.076316
   7 H :    0.011010
   8 H :    0.021977
   9 C :   -0.081898
  10 H :    0.033880
  11 H :    0.040328
  12 C :   -0.032823
  13 H :    0.046736
  14 H :    0.019370
  15 H :    0.014638
  16 S :    0.146493
  17 C :   -0.114860
  18 C :   -0.067604
  19 C :   -0.005303
  20 C :   -0.170755
  21 H :    0.030166
  22 C :    0.011517
  23 H :    0.028298
  24 H :    0.022728
  25 C :   -0.045152
  26 H :    0.030742
  27 H :    0.043975
  28 C :    0.007823
  29 H :    0.033104
  30 H :   -0.001426
  31 H :   -0.007520
  32 H :    0.079249
  33 H :    0.078788
Sum of atomic charges:    0.0000000

--------------------------------
MULLIKEN REDUCED ORBITAL CHARGES
--------------------------------
  0 S s       :     5.855466  s :     5.855466
      pz      :     3.207138  p :     9.954143
      px      :     3.493885
      py      :     3.253119
      dz2     :     0.026136  d :     0.101082
      dxz     :     0.016169
      dyz     :     0.020368
      dx2y2   :     0.020932
      dxy     :     0.017477
  1 C s       :     3.202646  s :     3.202646
      pz      :     0.916013  p :     2.887465
      px      :     1.025094
      py      :     0.946359
      dz2     :     0.006173  d :     0.030639
      dxz     :     0.004482
      dyz     :     0.007444
      dx2y2   :     0.005096
      dxy     :     0.007444
  2 C s       :     3.120117  s :     3.120117
      pz      :     1.003083  p :     2.968129
      px      :     1.002212
      py      :     0.962834
      dz2     :     0.007769  d :     0.041311
      dxz     :     0.005556
      dyz     :     0.010381
      dx2y2   :     0.007620
      dxy     :     0.009984
  3 C s       :     3.183038  s :     3.183038
      pz      :     0.937981  p :     2.750820
      px      :     0.966544
      py      :     0.846295
      dz2     :     0.006566  d :     0.030770
      dxz     :     0.004628
      dyz     :     0.007867
      dx2y2   :     0.006245
      dxy     :     0.005463
  4 C s       :     3.092448  s :     3.092448
      pz      :     1.047031  p :     3.017003
      px      :     1.049924
      py      :     0.920048
      dz2     :     0.009097  d :     0.043716
      dxz     :     0.005938
      dyz     :     0.010702
      dx2y2   :     0.008193
      dxy     :     0.009786
  5 H s       :     0.947331  s :     0.947331
      pz      :     0.004863  p :     0.023674
      px      :     0.004277
      py      :     0.014534
  6 C s       :     2.951578  s :     2.951578
      pz      :     0.984226  p :     2.936151
      px      :     0.976805
      py      :     0.975121
      dz2     :     0.003431  d :     0.035954
      dxz     :     0.010124
      dyz     :     0.008688
      dx2y2   :     0.003687
      dxy     :     0.010024
  7 H s       :     0.965763  s :     0.965763
      pz      :     0.007202  p :     0.023227
      px      :     0.009150
      py      :     0.006875
  8 H s       :     0.953677  s :     0.953677
      pz      :     0.008060  p :     0.024346
      px      :     0.008782
      py      :     0.007504
  9 C s       :     3.079957  s :     3.079957
      pz      :     0.993220  p :     2.967292
      px      :     0.990377
      py      :     0.983696
      dz2     :     0.002886  d :     0.034649
      dxz     :     0.010187
      dyz     :     0.008750
      dx2y2   :     0.003999
      dxy     :     0.008828
 10 H s       :     0.943517  s :     0.943517
      pz      :     0.008770  p :     0.022603
      px      :     0.006657
      py      :     0.007176
 11 H s       :     0.938085  s :     0.938085
      pz      :     0.007775  p :     0.021586
      px      :     0.008977
      py      :     0.004834
 12 C s       :     2.993840  s :     2.993840
      pz      :     1.002990  p :     3.011378
      px      :     1.035029
      py      :     0.973360
      dz2     :     0.002567  d :     0.027605
      dxz     :     0.007438
      dyz     :     0.007341
      dx2y2   :     0.001880
      dxy     :     0.008379
 13 H s       :     0.930788  s :     0.930788
      pz      :     0.010189  p :     0.022476
      px      :     0.007423
      py      :     0.004864
 14 H s       :     0.955890  s :     0.955890
      pz      :     0.007061  p :     0.024740
      px      :     0.009146
      py      :     0.008533
 15 H s       :     0.958741  s :     0.958741
      pz      :     0.008682  p :     0.026622
      px      :     0.008562
      py      :     0.009377
 16 S s       :     5.836104  s :     5.836104
      pz      :     2.942728  p :     9.892961
      px      :     3.352755
      py      :     3.597478
      dz2     :     0.020810  d :     0.124442
      dxz     :     0.044780
      dyz     :     0.031480
      dx2y2   :     0.013866
      dxy     :     0.013505
 17 C s       :     3.144466  s :     3.144466
      pz      :     0.928999  p :     2.935078
      px      :     0.924730
      py      :     1.081349
      dz2     :     0.007648  d :     0.035317
      dxz     :     0.010089
      dyz     :     0.004882
      dx2y2   :     0.006734
      dxy     :     0.005963
 18 C s       :     3.189522  s :     3.189522
      pz      :     0.940913  p :     2.843571
      px      :     0.903023
      py      :     0.999636
      dz2     :     0.008227  d :     0.034511
      dxz     :     0.010576
      dyz     :     0.007160
      dx2y2   :     0.004543
      dxy     :     0.004005
 19 C s       :     3.067503  s :     3.067503
      pz      :     0.936687  p :     2.895752
      px      :     0.976756
      py      :     0.982309
      dz2     :     0.011370  d :     0.042047
      dxz     :     0.009567
      dyz     :     0.007108
      dx2y2   :     0.006919
      dxy     :     0.007083
 20 C s       :     3.051557  s :     3.051557
      pz      :     0.922777  p :     3.074059
      px      :     1.033550
      py      :     1.117732
      dz2     :     0.010685  d :     0.045140
      dxz     :     0.014103
      dyz     :     0.007362
      dx2y2   :     0.007082
      dxy     :     0.005908
 21 H s       :     0.946993  s :     0.946993
      pz      :     0.005364  p :     0.022841
      px      :     0.011722
      py      :     0.005755
 22 C s       :     2.992392  s :     2.992392
      pz      :     0.965676  p :     2.961977
      px      :     0.979587
      py      :     1.016714
      dz2     :     0.003286  d :     0.034114
      dxz     :     0.009162
      dyz     :     0.009806
      dx2y2   :     0.003506
      dxy     :     0.008355
 23 H s       :     0.949831  s :     0.949831
      pz      :     0.007780  p :     0.021871
      px      :     0.005614
      py      :     0.008477
 24 H s       :     0.955987  s :     0.955987
      pz      :     0.006590  p :     0.021285
      px      :     0.007908
      py      :     0.006787
 25 C s       :     3.059444  s :     3.059444
      pz      :     0.951593  p :     2.950459
      px      :     0.975178
      py      :     1.023687
      dz2     :     0.004345  d :     0.035249
      dxz     :     0.010084
      dyz     :     0.008862
      dx2y2   :     0.002721
      dxy     :     0.009237
 26 H s       :     0.946424  s :     0.946424
      pz      :     0.008858  p :     0.022834
      px      :     0.007970
      py      :     0.006006
 27 H s       :     0.932382  s :     0.932382
      pz      :     0.006418  p :     0.023643
      px      :     0.008801
      py      :     0.008424
 28 C s       :     2.934595  s :     2.934595
      pz      :     1.016394  p :     3.026554
      px      :     1.008407
      py      :     1.001754
      dz2     :     0.003921  d :     0.031028
      dxz     :     0.008581
      dyz     :     0.007346
      dx2y2   :     0.003337
      dxy     :     0.007843
 29 H s       :     0.942323  s :     0.942323
      pz      :     0.006643  p :     0.024573
      px      :     0.010541
      py      :     0.007389
 30 H s       :     0.973716  s :     0.973716
      pz      :     0.011180  p :     0.027710
      px      :     0.008290
      py      :     0.008240
 31 H s       :     0.980699  s :     0.980699
      pz      :     0.007048  p :     0.026821
      px      :     0.007801
      py      :     0.011973
 32 H s       :     0.898144  s :     0.898144
      pz      :     0.006837  p :     0.022607
      px      :     0.008921
      py      :     0.006848
 33 H s       :     0.899039  s :     0.899039
      pz      :     0.014435  p :     0.022174
      px      :     0.002854
      py      :     0.004885


                     *******************************
                     * LOEWDIN POPULATION ANALYSIS *
                     *******************************

----------------------
LOEWDIN ATOMIC CHARGES
----------------------
   0 S :    0.384016
   1 C :   -0.206605
   2 C :   -0.052433
   3 C :   -0.060946
   4 C :   -0.188609
   5 H :    0.032669
   6 C :   -0.042564
   7 H :    0.028878
   8 H :    0.031691
   9 C :   -0.035441
  10 H :    0.027952
  11 H :    0.030114
  12 C :   -0.069708
  13 H :    0.033287
  14 H :    0.027015
  15 H :    0.015216
  16 S :    0.464572
  17 C :   -0.221084
  18 C :   -0.075971
  19 C :   -0.057450
  20 C :   -0.235045
  21 H :    0.035411
  22 C :   -0.037549
  23 H :    0.028665
  24 H :    0.033093
  25 C :   -0.027861
  26 H :    0.027920
  27 H :    0.023810
  28 C :   -0.067076
  29 H :    0.028758
  30 H :    0.015512
  31 H :    0.019054
  32 H :    0.042825
  33 H :    0.047885

-------------------------------
LOEWDIN REDUCED ORBITAL CHARGES
-------------------------------
  0 S s       :     5.531119  s :     5.531119
      pz      :     3.203490  p :     9.960983
      px      :     3.463764
      py      :     3.293729
      dz2     :     0.032469  d :     0.123883
      dxz     :     0.020385
      dyz     :     0.024817
      dx2y2   :     0.025473
      dxy     :     0.020739
  1 C s       :     2.970305  s :     2.970305
      pz      :     1.026069  p :     3.165647
      px      :     1.079106
      py      :     1.060472
      dz2     :     0.013742  d :     0.070653
      dxz     :     0.008594
      dyz     :     0.017507
      dx2y2   :     0.014279
      dxy     :     0.016531
  2 C s       :     2.884149  s :     2.884149
      pz      :     1.011134  p :     3.068256
      px      :     0.991106
      py      :     1.066016
      dz2     :     0.018442  d :     0.100028
      dxz     :     0.012623
      dyz     :     0.025998
      dx2y2   :     0.020413
      dxy     :     0.022553
  3 C s       :     2.885321  s :     2.885321
      pz      :     1.029844  p :     3.094421
      px      :     1.011802
      py      :     1.052774
      dz2     :     0.015952  d :     0.081204
      dxz     :     0.012269
      dyz     :     0.022073
      dx2y2   :     0.016310
      dxy     :     0.014599
  4 C s       :     2.921820  s :     2.921820
      pz      :     1.063543  p :     3.163865
      px      :     1.065453
      py      :     1.034869
      dz2     :     0.022740  d :     0.102924
      dxz     :     0.014007
      dyz     :     0.026187
      dx2y2   :     0.017757
      dxy     :     0.022233
  5 H s       :     0.895999  s :     0.895999
      pz      :     0.015525  p :     0.071332
      px      :     0.013498
      py      :     0.042309
  6 C s       :     2.825490  s :     2.825490
      pz      :     1.050752  p :     3.126286
      px      :     1.029638
      py      :     1.045897
      dz2     :     0.006491  d :     0.090788
      dxz     :     0.026743
      dyz     :     0.023004
      dx2y2   :     0.007694
      dxy     :     0.026855
  7 H s       :     0.903953  s :     0.903953
      pz      :     0.020499  p :     0.067170
      px      :     0.026864
      py      :     0.019806
  8 H s       :     0.898799  s :     0.898799
      pz      :     0.023070  p :     0.069510
      px      :     0.025231
      py      :     0.021210
  9 C s       :     2.846557  s :     2.846557
      pz      :     1.042537  p :     3.105453
      px      :     1.032953
      py      :     1.029963
      dz2     :     0.005319  d :     0.083430
      dxz     :     0.025766
      dyz     :     0.022232
      dx2y2   :     0.008110
      dxy     :     0.022004
 10 H s       :     0.904808  s :     0.904808
      pz      :     0.025403  p :     0.067240
      px      :     0.019963
      py      :     0.021875
 11 H s       :     0.906814  s :     0.906814
      pz      :     0.021842  p :     0.063072
      px      :     0.026614
      py      :     0.014616
 12 C s       :     2.831122  s :     2.831122
      pz      :     1.056238  p :     3.169320
      px      :     1.081059
      py      :     1.032023
      dz2     :     0.005560  d :     0.069266
      dxz     :     0.018947
      dyz     :     0.019804
      dx2y2   :     0.003928
      dxy     :     0.021026
 13 H s       :     0.904270  s :     0.904270
      pz      :     0.028490  p :     0.062443
      px      :     0.020435
      py      :     0.013518
 14 H s       :     0.903913  s :     0.903913
      pz      :     0.018516  p :     0.069072
      px      :     0.025147
      py      :     0.025409
 15 H s       :     0.907676  s :     0.907676
      pz      :     0.024884  p :     0.077108
      px      :     0.023803
      py      :     0.028421
 16 S s       :     5.461993  s :     5.461993
      pz      :     2.968854  p :     9.916147
      px      :     3.383702
      py      :     3.563592
      dz2     :     0.029139  d :     0.157287
      dxz     :     0.059376
      dyz     :     0.039850
      dx2y2   :     0.014939
      dxy     :     0.013983
 17 C s       :     2.941836  s :     2.941836
      pz      :     1.056438  p :     3.197456
      px      :     1.045042
      py      :     1.095976
      dz2     :     0.018227  d :     0.081793
      dxz     :     0.025699
      dyz     :     0.009959
      dx2y2   :     0.014228
      dxy     :     0.013679
 18 C s       :     2.878288  s :     2.878288
      pz      :     1.039322  p :     3.108675
      px      :     1.048741
      py      :     1.020612
      dz2     :     0.023756  d :     0.089008
      dxz     :     0.029317
      dyz     :     0.016442
      dx2y2   :     0.009686
      dxy     :     0.009807
 19 C s       :     2.863632  s :     2.863632
      pz      :     1.044667  p :     3.087662
      px      :     1.039526
      py      :     1.003468
      dz2     :     0.031264  d :     0.106157
      dxz     :     0.026158
      dyz     :     0.015402
      dx2y2   :     0.015903
      dxy     :     0.017430
 20 C s       :     2.897051  s :     2.897051
      pz      :     1.030036  p :     3.227556
      px      :     1.089366
      py      :     1.108154
      dz2     :     0.026920  d :     0.110438
      dxz     :     0.036787
      dyz     :     0.016914
      dx2y2   :     0.015482
      dxy     :     0.014334
 21 H s       :     0.897680  s :     0.897680
      pz      :     0.017181  p :     0.066909
      px      :     0.032798
      py      :     0.016929
 22 C s       :     2.847859  s :     2.847859
      pz      :     1.029758  p :     3.105827
      px      :     1.037244
      py      :     1.038824
      dz2     :     0.006452  d :     0.083863
      dxz     :     0.024152
      dyz     :     0.025439
      dx2y2   :     0.007283
      dxy     :     0.020538
 23 H s       :     0.906965  s :     0.906965
      pz      :     0.022274  p :     0.064370
      px      :     0.016714
      py      :     0.025383
 24 H s       :     0.906463  s :     0.906463
      pz      :     0.018410  p :     0.060445
      px      :     0.022242
      py      :     0.019793
 25 C s       :     2.834088  s :     2.834088
      pz      :     1.022383  p :     3.107732
      px      :     1.035477
      py      :     1.049872
      dz2     :     0.008279  d :     0.086041
      dxz     :     0.027141
      dyz     :     0.022292
      dx2y2   :     0.005225
      dxy     :     0.023105
 26 H s       :     0.905060  s :     0.905060
      pz      :     0.025258  p :     0.067020
      px      :     0.023357
      py      :     0.018405
 27 H s       :     0.904769  s :     0.904769
      pz      :     0.019735  p :     0.071421
      px      :     0.025519
      py      :     0.026167
 28 C s       :     2.800431  s :     2.800431
      pz      :     1.064307  p :     3.187600
      px      :     1.061166
      py      :     1.062128
      dz2     :     0.008606  d :     0.079045
      dxz     :     0.023037
      dyz     :     0.018887
      dx2y2   :     0.007554
      dxy     :     0.020961
 29 H s       :     0.903228  s :     0.903228
      pz      :     0.019458  p :     0.068014
      px      :     0.029101
      py      :     0.019455
 30 H s       :     0.905309  s :     0.905309
      pz      :     0.031294  p :     0.079179
      px      :     0.023654
      py      :     0.024231
 31 H s       :     0.905775  s :     0.905775
      pz      :     0.020080  p :     0.075171
      px      :     0.021187
      py      :     0.033903
 32 H s       :     0.888351  s :     0.888351
      pz      :     0.021374  p :     0.068824
      px      :     0.027685
      py      :     0.019764
 33 H s       :     0.884868  s :     0.884868
      pz      :     0.041694  p :     0.067247
      px      :     0.009994
      py      :     0.015559


                      *****************************
                      * MAYER POPULATION ANALYSIS *
                      *****************************

  NA   - Mulliken gross atomic population
  ZA   - Total nuclear charge
  QA   - Mulliken gross atomic charge
  VA   - Mayer's total valence
  BVA  - Mayer's bonded valence
  FA   - Mayer's free valence

  ATOM       NA         ZA         QA         VA         BVA        FA
  0 S     15.9107    16.0000     0.0893     2.4728     2.4728     0.0000
  1 C      6.1207     6.0000    -0.1207     3.8219     3.8219     0.0000
  2 C      6.1296     6.0000    -0.1296     4.0215     4.0215     0.0000
  3 C      5.9646     6.0000     0.0354     3.8936     3.8936     0.0000
  4 C      6.1532     6.0000    -0.1532     3.8965     3.8965    -0.0000
  5 H      0.9710     1.0000     0.0290     1.0009     1.0009     0.0000
  6 C      5.9237     6.0000     0.0763     3.9447     3.9447    -0.0000
  7 H      0.9890     1.0000     0.0110     0.9914     0.9914    -0.0000
  8 H      0.9780     1.0000     0.0220     0.9863     0.9863    -0.0000
  9 C      6.0819     6.0000    -0.0819     4.0541     4.0541     0.0000
 10 H      0.9661     1.0000     0.0339     0.9780     0.9780     0.0000
 11 H      0.9597     1.0000     0.0403     0.9907     0.9907    -0.0000
 12 C      6.0328     6.0000    -0.0328     3.9874     3.9874    -0.0000
 13 H      0.9533     1.0000     0.0467     0.9873     0.9873    -0.0000
 14 H      0.9806     1.0000     0.0194     0.9873     0.9873    -0.0000
 15 H      0.9854     1.0000     0.0146     0.9932     0.9932    -0.0000
 16 S     15.8535    16.0000     0.1465     2.5431     2.5431    -0.0000
 17 C      6.1149     6.0000    -0.1149     3.8341     3.8341    -0.0000
 18 C      6.0676     6.0000    -0.0676     3.9857     3.9857     0.0000
 19 C      6.0053     6.0000    -0.0053     4.0204     4.0204     0.0000
 20 C      6.1708     6.0000    -0.1708     3.8836     3.8836     0.0000
 21 H      0.9698     1.0000     0.0302     0.9942     0.9942     0.0000
 22 C      5.9885     6.0000     0.0115     3.9614     3.9614     0.0000
 23 H      0.9717     1.0000     0.0283     0.9891     0.9891     0.0000
 24 H      0.9773     1.0000     0.0227     0.9868     0.9868     0.0000
 25 C      6.0452     6.0000    -0.0452     4.0885     4.0885     0.0000
 26 H      0.9693     1.0000     0.0307     0.9748     0.9748     0.0000
 27 H      0.9560     1.0000     0.0440     0.9864     0.9864     0.0000
 28 C      5.9922     6.0000     0.0078     3.9836     3.9836     0.0000
 29 H      0.9669     1.0000     0.0331     0.9901     0.9901     0.0000
 30 H      1.0014     1.0000    -0.0014     0.9952     0.9952     0.0000
 31 H      1.0075     1.0000    -0.0075     0.9957     0.9957     0.0000
 32 H      0.9208     1.0000     0.0792     0.9967     0.9967     0.0000
 33 H      0.9212     1.0000     0.0788     0.9913     0.9913     0.0000

  Mayer bond orders larger than 0.100000
B(  0-S ,  1-C ) :   1.1184 B(  0-S ,  4-C ) :   1.1520 B(  1-C ,  2-C ) :   1.6159 
B(  1-C , 32-H ) :   0.9591 B(  2-C ,  3-C ) :   1.2256 B(  2-C ,  6-C ) :   1.0387 
B(  3-C ,  4-C ) :   1.5766 B(  3-C ,  5-H ) :   0.9856 B(  4-C , 20-C ) :   1.0177 
B(  6-C ,  7-H ) :   0.9400 B(  6-C ,  8-H ) :   0.9368 B(  6-C ,  9-C ) :   1.0441 
B(  9-C , 10-H ) :   0.9553 B(  9-C , 11-H ) :   0.9590 B(  9-C , 12-C ) :   1.0742 
B( 12-C , 13-H ) :   0.9765 B( 12-C , 14-H ) :   0.9714 B( 12-C , 15-H ) :   0.9752 
B( 16-S , 17-C ) :   1.1692 B( 16-S , 20-C ) :   1.1852 B( 17-C , 18-C ) :   1.6015 
B( 17-C , 33-H ) :   0.9551 B( 18-C , 19-C ) :   1.2796 B( 18-C , 21-H ) :   0.9821 
B( 19-C , 20-C ) :   1.5501 B( 19-C , 22-C ) :   1.0449 B( 22-C , 23-H ) :   0.9375 
B( 22-C , 24-H ) :   0.9355 B( 22-C , 25-C ) :   1.0544 B( 25-C , 26-H ) :   0.9560 
B( 25-C , 27-H ) :   0.9624 B( 25-C , 28-C ) :   1.0829 B( 28-C , 29-H ) :   0.9742 
B( 28-C , 30-H ) :   0.9668 B( 28-C , 31-H ) :   0.9627 

-------
TIMINGS
-------

Total SCF time: 0 days 0 hours 0 min 26 sec 

Total time                  ....      26.082 sec
Sum of individual times     ....      25.141 sec  ( 96.4%)

Fock matrix formation       ....      23.277 sec  ( 89.2%)
  XC integration            ....       1.690 sec  (  7.3% of F)
    Basis function eval.    ....       0.212 sec  ( 12.5% of XC)
    Density eval.           ....       0.160 sec  (  9.4% of XC)
    XC-Functional eval.     ....       0.182 sec  ( 10.8% of XC)
    XC-Potential eval.      ....       0.187 sec  ( 11.1% of XC)
Diagonalization             ....       0.135 sec  (  0.5%)
Density matrix formation    ....       0.018 sec  (  0.1%)
Population analysis         ....       0.056 sec  (  0.2%)
Initial guess               ....       0.189 sec  (  0.7%)
Orbital Transformation      ....       0.000 sec  (  0.0%)
Orbital Orthonormalization  ....       0.000 sec  (  0.0%)
DIIS solution               ....       0.143 sec  (  0.6%)
SOSCF solution              ....       0.105 sec  (  0.4%)
Grid generation             ....       1.218 sec  (  4.7%)


-------------------------------------------------------------------------------
                          DFT DISPERSION CORRECTION                            
                                                                               
                              DFTD3 V3.1  Rev 1                                
                              USING zero damping                               
-------------------------------------------------------------------------------
The omegaB97X-D3 functional is recognized. Fit by Chai et al.
Active option DFTDOPT                   ...         3   

molecular C6(AA) [au] = 14202.333810 


            DFT-D V3
 parameters
 s6 scaling factor         :     1.0000 
 rs6 scaling factor        :     1.2810 
 s8 scaling factor         :     1.0000 
 rs8 scaling factor        :     1.0940 
 Damping factor alpha6     :    14.0000 
 Damping factor alpha8     :    16.0000 
 ad hoc parameters k1-k3   :    16.0000     1.3333    -4.0000 

 Edisp/kcal,au: -8.736275061964  -0.013922139013 
 E6   /kcal   :  -4.013579909 
 E8   /kcal   :  -4.722695153 
 % E8         :  54.058453052 

-------------------------   ----------------
Dispersion correction           -0.013922139
-------------------------   ----------------


-------------------------   --------------------
FINAL SINGLE POINT ENERGY     -1339.861867530832
-------------------------   --------------------


                            ***************************************
                            *     ORCA property calculations      *
                            ***************************************

                                    ---------------------
                                    Active property flags
                                    ---------------------
   (+) Dipole Moment


------------------------------------------------------------------------------
                       ORCA ELECTRIC PROPERTIES CALCULATION
------------------------------------------------------------------------------

Dipole Moment Calculation                       ... on
Quadrupole Moment Calculation                   ... off
Polarizability Calculation                      ... off
GBWName                                         ... config_6437.gbw
Electron density file                           ... config_6437.scfp
The origin for moment calculation is the CENTER OF MASS  = (-71.984950, 60.628643 151.351343)

-------------
DIPOLE MOMENT
-------------
                                X             Y             Z
Electronic contribution:      8.61062     -17.53001      21.54801
Nuclear contribution   :     -8.55835      18.21431     -21.73481
                        -----------------------------------------
Total Dipole Moment    :      0.05227       0.68430      -0.18679
                        -----------------------------------------
Magnitude (a.u.)       :      0.71126
Magnitude (Debye)      :      1.80788



--------------------
Rotational spectrum 
--------------------
 
Rotational constants in cm-1:     0.017013     0.008615     0.007020 
Rotational constants in MHz :   510.030889   258.259424   210.445690 

 Dipole components along the rotational axes: 
x,y,z [a.u.] :    -0.307290    -0.331958     0.548879 
x,y,z [Debye]:    -0.781070    -0.843771     1.395139 

 

Timings for individual modules:

Sum of individual times         ...       27.159 sec (=   0.453 min)
GTO integral calculation        ...        0.732 sec (=   0.012 min)   2.7 %
SCF iterations                  ...       26.427 sec (=   0.440 min)  97.3 %
                             ****ORCA TERMINATED NORMALLY****
TOTAL RUN TIME: 0 days 0 hours 0 minutes 27 seconds 874 msec
