
                                 *****************
                                 * O   R   C   A *
                                 *****************

           --- An Ab Initio, DFT and Semiempirical electronic structure package ---

                  #######################################################
                  #                        -***-                        #
                  #          Department of theory and spectroscopy      #
                  #               Directorship: Frank Neese             #
                  #        Max Planck Institute fuer Kohlenforschung    #
                  #                Kaiser Wilhelm Platz 1               #
                  #                 D-45470 Muelheim/Ruhr               #
                  #                      Germany                        #
                  #                                                     #
                  #                  All rights reserved                #
                  #                        -***-                        #
                  #######################################################


                         Program Version 4.2.1 -  RELEASE  -


 With contributions from (in alphabetic order):
   Daniel Aravena         : Magnetic Suceptibility
   Michael Atanasov       : Ab Initio Ligand Field Theory (pilot matlab implementation)
   Alexander A. Auer      : GIAO ZORA, VPT2
   Ute Becker             : Parallelization
   Giovanni Bistoni       : ED, misc. LED, open-shell LED, HFLD
   Martin Brehm           : Molecular dynamics
   Dmytro Bykov           : SCF Hessian
   Vijay G. Chilkuri      : MRCI spin determinant printing, contributions to CSF-ICE
   Dipayan Datta          : RHF DLPNO-CCSD density
   Achintya Kumar Dutta   : EOM-CC, STEOM-CC
   Dmitry Ganyushin       : Spin-Orbit,Spin-Spin,Magnetic field MRCI
   Miquel Garcia          : C-PCM Hessian, Gaussian charge scheme
   Yang Guo               : DLPNO-NEVPT2, CIM, IAO-localization
   Andreas Hansen         : Spin unrestricted coupled pair/coupled cluster methods
   Benjamin Helmich-Paris : CASSCF linear response (MC-RPA)
   Lee Huntington         : MR-EOM, pCC
   Robert Izsak           : Overlap fitted RIJCOSX, COSX-SCS-MP3, EOM
   Christian Kollmar      : KDIIS, OOCD, Brueckner-CCSD(T), CCSD density
   Simone Kossmann        : Meta GGA functionals, TD-DFT gradient, OOMP2, MP2 Hessian
   Martin Krupicka        : AUTO-CI
   Lucas Lang             : DCDCAS
   Dagmar Lenk            : GEPOL surface, SMD
   Dimitrios Liakos       : Extrapolation schemes; Compound Job, initial MDCI parallelization
   Dimitrios Manganas     : Further ROCIS development; embedding schemes
   Dimitrios Pantazis     : SARC Basis sets
   Taras Petrenko         : DFT Hessian,TD-DFT gradient, ASA, ECA, R-Raman, ABS, FL, XAS/XES, NRVS
   Peter Pinski           : DLPNO-MP2, DLPNO-MP2 Gradient
   Christoph Reimann      : Effective Core Potentials
   Marius Retegan         : Local ZFS, SOC
   Christoph Riplinger    : Optimizer, TS searches, QM/MM, DLPNO-CCSD(T), (RO)-DLPNO pert. Triples
   Tobias Risthaus        : Range-separated hybrids, TD-DFT gradient, RPA, STAB
   Michael Roemelt        : Original ROCIS implementation
   Masaaki Saitow         : Open-shell DLPNO-CCSD energy and density
   Barbara Sandhoefer     : DKH picture change effects
   Avijit Sen             : IP-ROCIS
   Kantharuban Sivalingam : CASSCF convergence, NEVPT2, FIC-MRCI
   Bernardo de Souza      : ESD, SOC TD-DFT
   Georgi Stoychev        : AutoAux, RI-MP2 NMR
   Willem Van den Heuvel  : Paramagnetic NMR
   Boris Wezisla          : Elementary symmetry handling
   Frank Wennmohs         : Technical directorship


 We gratefully acknowledge several colleagues who have allowed us to
 interface, adapt or use parts of their codes:
   Stefan Grimme, W. Hujo, H. Kruse,             : VdW corrections, initial TS optimization,
                  C. Bannwarth                     DFT functionals, gCP, sTDA/sTD-DF
   Ed Valeev, F. Pavosevic, A. Kumar             : LibInt (2-el integral package), F12 methods
   Garnet Chan, S. Sharma, J. Yang, R. Olivares  : DMRG
   Ulf Ekstrom                                   : XCFun DFT Library
   Mihaly Kallay                                 : mrcc  (arbitrary order and MRCC methods)
   Andreas Klamt, Michael Diedenhofen            : otool_cosmo (COSMO solvation model)
   Jiri Pittner, Ondrej Demel                    : Mk-CCSD
   Frank Weinhold                                : gennbo (NPA and NBO analysis)
   Christopher J. Cramer and Donald G. Truhlar   : smd solvation model
   Lars Goerigk                                  : TD-DFT with DH, B97 family of functionals
   V. Asgeirsson, H. Jonsson                     : NEB implementation
   FAccTs GmbH                                   : IRC, NEB, NEB-TS, Multilevel, MM, QM/MM, CI optimization
   S Lehtola, MJT Oliveira, MAL Marques          : LibXC Library


 Your calculation uses the libint2 library for the computation of 2-el integrals
 For citations please refer to: http://libint.valeyev.net

 Your ORCA version has been built with support for libXC version: 4.2.3
 For citations please refer to: https://tddft.org/programs/libxc/

 This ORCA versions uses:
   CBLAS   interface :  Fast vector & matrix operations
   LAPACKE interface :  Fast linear algebra routines
   SCALAPACK package :  Parallel linear algebra routines


Your calculation utilizes the atom-pairwise dispersion correction
with the zero-damping scheme (D30)
Cite in your paper:
S.Grimme, J.Antony, S.Ehrlich and H.Krieg, J.Chem.Phys., 132, (2010), 154104 
   

XCFun DFT library Copyright 2009-2010 Ulf Ekstrom and contributors.
See http://admol.org/xcfun for more information. This is free soft-
ware; see the source code for copying conditions. There is ABSOLUTELY
NO WARRANTY; not even for MERCHANTABILITY or FITNESS FOR A PARTICULAR
PURPOSE. For details see the documentation. Scientific users of this 
library should cite U. Ekstrom, L. Visscher, R. Bast, A. J. Thorvald-
sen and K. Ruud; J.Chem.Theor.Comp. 2010, DOI: 10.1021/ct100117s
XCFun Version 0.99 
----- Orbital basis set information -----
Your calculation utilizes the basis: def2-SVP
   F. Weigend and R. Ahlrichs, Phys. Chem. Chem. Phys. 7, 3297 (2005).

================================================================================
                                        WARNINGS
                       Please study these warnings very carefully!
================================================================================


INFO   : the flag for use of LIBINT has been found!

================================================================================
                                       INPUT FILE
================================================================================
NAME = config_8071.inp
|  1> ! wB97X-D3 SP def2-SVP
|  2> %pal
|  3> nprocs 16
|  4> end
|  5> 
|  6> * xyz 0 1
|  7> S 	 -72.1769 	 35.4609 	 124.663 	 
|  8> C 	 -70.6868 	 35.1028 	 123.728 	 
|  9> C 	 -70.0522 	 36.2566 	 123.364 	 
| 10> C 	 -70.7456 	 37.4221 	 123.754 	 
| 11> C 	 -71.8593 	 37.2305 	 124.544 	 
| 12> H 	 -70.4949 	 38.4343 	 123.618 	 
| 13> C 	 -68.7029 	 36.1967 	 122.727 	 
| 14> H 	 -68.6367 	 36.9382 	 121.926 	 
| 15> H 	 -68.642 	 35.2004 	 122.298 	 
| 16> C 	 -67.5232 	 36.541 	 123.641 	 
| 17> H 	 -66.6373 	 36.5927 	 123.004 	 
| 18> H 	 -67.7408 	 37.5428 	 124.012 	 
| 19> C 	 -67.4643 	 35.4537 	 124.76 	 
| 20> H 	 -66.6421 	 35.6575 	 125.445 	 
| 21> H 	 -68.3894 	 35.2516 	 125.354 	 
| 22> H 	 -67.1989 	 34.5672 	 124.114 	 
| 23> S 	 -72.9764 	 38.4611 	 126.696 	 
| 24> C 	 -73.8935 	 39.8746 	 126.486 	 
| 25> C 	 -73.8803 	 40.2834 	 125.203 	 
| 26> C 	 -73.1919 	 39.3869 	 124.3 	 
| 27> C 	 -72.7463 	 38.3 	 124.96 	 
| 28> H 	 -74.4831 	 41.107 	 124.935 	 
| 29> C 	 -73.1664 	 39.5966 	 122.798 	 
| 30> H 	 -74.1527 	 40.0085 	 122.588 	 
| 31> H 	 -72.9966 	 38.6802 	 122.351 	 
| 32> C 	 -72.1135 	 40.5522 	 122.29 	 
| 33> H 	 -71.1019 	 40.0593 	 122.41 	 
| 34> H 	 -72.2476 	 41.5644 	 122.73 	 
| 35> C 	 -72.3201 	 40.8338 	 120.781 	 
| 36> H 	 -71.9549 	 41.8231 	 120.459 	 
| 37> H 	 -73.3863 	 40.6215 	 120.512 	 
| 38> H 	 -71.7911 	 40.0888 	 120.264 	 
| 39> H 	 -70.2918 	 34.1118 	 123.516 	 
| 40> H 	 -74.3558 	 40.4613 	 127.261 	 
| 41> *
| 42> 
| 43>                          ****END OF INPUT****
================================================================================

                       ****************************
                       * Single Point Calculation *
                       ****************************

---------------------------------
CARTESIAN COORDINATES (ANGSTROEM)
---------------------------------
  S    -72.176900   35.460900  124.663000
  C    -70.686800   35.102800  123.728000
  C    -70.052200   36.256600  123.364000
  C    -70.745600   37.422100  123.754000
  C    -71.859300   37.230500  124.544000
  H    -70.494900   38.434300  123.618000
  C    -68.702900   36.196700  122.727000
  H    -68.636700   36.938200  121.926000
  H    -68.642000   35.200400  122.298000
  C    -67.523200   36.541000  123.641000
  H    -66.637300   36.592700  123.004000
  H    -67.740800   37.542800  124.012000
  C    -67.464300   35.453700  124.760000
  H    -66.642100   35.657500  125.445000
  H    -68.389400   35.251600  125.354000
  H    -67.198900   34.567200  124.114000
  S    -72.976400   38.461100  126.696000
  C    -73.893500   39.874600  126.486000
  C    -73.880300   40.283400  125.203000
  C    -73.191900   39.386900  124.300000
  C    -72.746300   38.300000  124.960000
  H    -74.483100   41.107000  124.935000
  C    -73.166400   39.596600  122.798000
  H    -74.152700   40.008500  122.588000
  H    -72.996600   38.680200  122.351000
  C    -72.113500   40.552200  122.290000
  H    -71.101900   40.059300  122.410000
  H    -72.247600   41.564400  122.730000
  C    -72.320100   40.833800  120.781000
  H    -71.954900   41.823100  120.459000
  H    -73.386300   40.621500  120.512000
  H    -71.791100   40.088800  120.264000
  H    -70.291800   34.111800  123.516000
  H    -74.355800   40.461300  127.261000

----------------------------
CARTESIAN COORDINATES (A.U.)
----------------------------
  NO LB      ZA    FRAG     MASS         X           Y           Z
   0 S    16.0000    0    32.060  -136.394574   67.011389  235.578929
   1 C     6.0000    0    12.011  -133.578693   66.334679  233.812035
   2 C     6.0000    0    12.011  -132.379473   68.515045  233.124175
   3 C     6.0000    0    12.011  -133.689809   70.717520  233.861168
   4 C     6.0000    0    12.011  -135.794397   70.355449  235.354052
   5 H     1.0000    0     1.008  -133.216055   72.630301  233.604165
   6 C     6.0000    0    12.011  -129.829666   68.401850  231.920419
   7 H     1.0000    0     1.008  -129.704566   69.803082  230.406749
   8 H     1.0000    0     1.008  -129.714581   66.519116  231.109727
   9 C     6.0000    0    12.011  -127.600356   69.052483  233.647629
  10 H     1.0000    0     1.008  -125.926247   69.150182  232.443873
  11 H     1.0000    0     1.008  -128.011560   70.945610  234.348717
  12 C     6.0000    0    12.011  -127.489051   66.997783  235.762232
  13 H     1.0000    0     1.008  -125.935318   67.382910  237.056695
  14 H     1.0000    0     1.008  -129.237236   66.615870  236.884730
  15 H     1.0000    0     1.008  -126.987518   65.322541  234.541469
  16 S    16.0000    0    32.060  -137.905410   72.680946  239.420742
  17 C     6.0000    0    12.011  -139.638478   75.352074  239.023900
  18 C     6.0000    0    12.011  -139.613534   76.124594  236.599381
  19 C     6.0000    0    12.011  -138.312646   74.430454  234.892958
  20 C     6.0000    0    12.011  -137.470584   72.376511  236.140178
  21 H     1.0000    0     1.008  -140.752661   77.680972  236.092935
  22 C     6.0000    0    12.011  -138.264458   74.826730  232.054590
  23 H     1.0000    0     1.008  -140.128295   75.605108  231.657747
  24 H     1.0000    0     1.008  -137.943583   73.094985  231.209882
  25 C     6.0000    0    12.011  -136.274766   76.632552  231.094609
  26 H     1.0000    0     1.008  -134.363119   75.701106  231.321376
  27 H     1.0000    0     1.008  -136.528178   78.545333  231.926088
  28 C     6.0000    0    12.011  -136.665183   77.164699  228.243012
  29 H     1.0000    0     1.008  -135.975055   79.034205  227.634520
  30 H     1.0000    0     1.008  -138.680009   76.763510  227.734676
  31 H     1.0000    0     1.008  -135.665518   75.756853  227.266024
  32 H     1.0000    0     1.008  -132.832251   64.461960  233.411413
  33 H     1.0000    0     1.008  -140.512098   76.460776  240.488438

--------------------------------
INTERNAL COORDINATES (ANGSTROEM)
--------------------------------
 S      0   0   0     0.000000000000     0.00000000     0.00000000
 C      1   0   0     1.795232191111     0.00000000     0.00000000
 C      2   1   0     1.366187249245   110.84593957     0.00000000
 C      3   2   1     1.411132102250   113.30652629   357.32437281
 C      4   3   2     1.378817700060   116.13420015     6.33349507
 H      4   3   2     1.051615580904   129.94796265   179.40849188
 C      3   2   1     1.493307570462   119.96602935   172.35219401
 H      7   3   2     1.093529007388   109.87438408   140.22232387
 H      7   3   2     1.086445350673   104.82517947    22.97901357
 C      7   3   2     1.531545160940   115.61995142   257.22958130
 H     10   7   3     1.092364728468   106.69723581   187.93199354
 H     10   7   3     1.090226581954   104.82787201   302.86556693
 C     10   7   3     1.561362065634   107.47026218    64.26146539
 H     13  10   7     1.089390783879   110.41628072   180.41156004
 H     13  10   7     1.117806074415   118.39380531   306.89360137
 H     13  10   7     1.128554566691    98.37499417    66.20310382
 S      5   4   3     2.719079397517   136.25410829   140.09619632
 C     17   5   4     1.697985471080   120.05083827    79.21062399
 C     18  17   5     1.346618238403   111.42310355   355.78330340
 C     19  18  17     1.446725893181   114.28191667     4.56489578
 C     20  19  18     1.347408983939   110.57867737     1.95557071
 H     19  18  17     1.055229264189   118.24962217   174.90962798
 C     20  19  18     1.516782232227   122.71172961   174.45457771
 H     23  20  19     1.089288437467   103.17721983   324.62898635
 H     23  20  19     1.033648876553   107.96433388   204.06855526
 C     23  20  19     1.509911841797   115.61909474    83.64006878
 H     26  23  20     1.131673526243   108.18034807    70.56125068
 H     26  23  20     1.111814575368   111.03426294   300.19248317
 C     26  23  20     1.548890932248   110.47682156   188.05382326
 H     29  26  23     1.102619394896   113.79431302   151.86742685
 H     29  26  23     1.119917287124   109.05849086    22.63331538
 H     29  26  23     1.049835701431   106.47198637   271.99353095
 H      2   1   3     1.087681019417   125.78100362   176.72771002
 H     18  17   5     1.076365727808   126.63254966   181.97419944

---------------------------
INTERNAL COORDINATES (A.U.)
---------------------------
 S      0   0   0     0.000000000000     0.00000000     0.00000000
 C      1   0   0     3.392497187999     0.00000000     0.00000000
 C      2   1   0     2.581719748729   110.84593957     0.00000000
 C      3   2   1     2.666653212037   113.30652629   357.32437281
 C      4   3   2     2.605587841717   116.13420015     6.33349507
 H      4   3   2     1.987265446073   129.94796265   179.40849188
 C      3   2   1     2.821942341885   119.96602935   172.35219401
 H      7   3   2     2.066470343463   109.87438408   140.22232387
 H      7   3   2     2.053084172245   104.82517947    22.97901357
 C      7   3   2     2.894200915910   115.61995142   257.22958130
 H     10   7   3     2.064270175159   106.69723581   187.93199354
 H     10   7   3     2.060229663815   104.82787201   302.86556693
 C     10   7   3     2.950546699941   107.47026218    64.26146539
 H     13  10   7     2.058650234349   110.41628072   180.41156004
 H     13  10   7     2.112347351479   118.39380531   306.89360137
 H     13  10   7     2.132659058233    98.37499417    66.20310382
 S      5   4   3     5.138315397694   136.25410829   140.09619632
 C     17   5   4     3.208727519719   120.05083827    79.21062399
 C     18  17   5     2.544739677525   111.42310355   355.78330340
 C     19  18  17     2.733915728964   114.28191667     4.56489578
 C     20  19  18     2.546233970030   110.57867737     1.95557071
 H     19  18  17     1.994094317816   118.24962217   174.90962798
 C     20  19  18     2.866303023707   122.71172961   174.45457771
 H     23  20  19     2.058456827660   103.17721983   324.62898635
 H     23  20  19     1.953313295321   107.96433388   204.06855526
 C     23  20  19     2.853319867362   115.61909474    83.64006878
 H     26  23  20     2.138553037609   108.18034807    70.56125068
 H     26  23  20     2.101025059147   111.03426294   300.19248317
 C     26  23  20     2.926979673263   110.47682156   188.05382326
 H     29  26  23     2.083648686303   113.79431302   151.86742685
 H     29  26  23     2.116336965309   109.05849086    22.63331538
 H     29  26  23     1.983901961319   106.47198637   271.99353095
 H      2   1   3     2.055419247762   125.78100362   176.72771002
 H     18  17   5     2.034036445496   126.63254966   181.97419944

---------------------
BASIS SET INFORMATION
---------------------
There are 3 groups of distinct atoms

 Group   1 Type S   : 10s7p1d contracted to 4s3p1d pattern {5311/511/1}
 Group   2 Type C   : 7s4p1d contracted to 3s2p1d pattern {511/31/1}
 Group   3 Type H   : 4s1p contracted to 2s1p pattern {31/1}

Atom   0S    basis set group =>   1
Atom   1C    basis set group =>   2
Atom   2C    basis set group =>   2
Atom   3C    basis set group =>   2
Atom   4C    basis set group =>   2
Atom   5H    basis set group =>   3
Atom   6C    basis set group =>   2
Atom   7H    basis set group =>   3
Atom   8H    basis set group =>   3
Atom   9C    basis set group =>   2
Atom  10H    basis set group =>   3
Atom  11H    basis set group =>   3
Atom  12C    basis set group =>   2
Atom  13H    basis set group =>   3
Atom  14H    basis set group =>   3
Atom  15H    basis set group =>   3
Atom  16S    basis set group =>   1
Atom  17C    basis set group =>   2
Atom  18C    basis set group =>   2
Atom  19C    basis set group =>   2
Atom  20C    basis set group =>   2
Atom  21H    basis set group =>   3
Atom  22C    basis set group =>   2
Atom  23H    basis set group =>   3
Atom  24H    basis set group =>   3
Atom  25C    basis set group =>   2
Atom  26H    basis set group =>   3
Atom  27H    basis set group =>   3
Atom  28C    basis set group =>   2
Atom  29H    basis set group =>   3
Atom  30H    basis set group =>   3
Atom  31H    basis set group =>   3
Atom  32H    basis set group =>   3
Atom  33H    basis set group =>   3


           ************************************************************
           *        Program running with 16 parallel MPI-processes    *
           *              working on a common directory               *
           ************************************************************
------------------------------------------------------------------------------
                           ORCA GTO INTEGRAL CALCULATION
------------------------------------------------------------------------------

                         BASIS SET STATISTICS AND STARTUP INFO

 # of primitive gaussian shells          ...  294
 # of primitive gaussian functions       ...  534
 # of contracted shells                  ...  154
 # of contracted basis functions         ...  322
 Highest angular momentum                ...    2
 Maximum contraction depth               ...    5
 Integral package used                   ... LIBINT
 Integral threshhold            Thresh   ...  1.000e-10
 Primitive cut-off              TCut     ...  1.000e-11


------------------------------ INTEGRAL EVALUATION ----------------------------


 * One electron integrals 
 Pre-screening matrix                    ... done
 Shell pair data                         ... done (   0.003 sec)



           ************************************************************
           *        Program running with 16 parallel MPI-processes    *
           *              working on a common directory               *
           ************************************************************
-------------------------------------------------------------------------------
                                 ORCA SCF
-------------------------------------------------------------------------------

------------
SCF SETTINGS
------------
Hamiltonian:
 Density Functional     Method          .... DFT(GTOs)
 Exchange Functional    Exchange        .... WB97X-D3
 Correlation Functional Correlation     .... WB97X-D3
 Gradients option       PostSCFGGA      .... off
 Hybrid DFT is turned on
   Fraction HF Exchange ScalHFX         ....  0.195728
   Scaling of DF-GGA-X  ScalDFX         ....  0.000000
   Scaling of DF-GGA-C  ScalDFC         ....  1.000000
   Scaling of DF-LDA-C  ScalLDAC        ....  1.000000
   Perturbative correction              ....  0.000000
   Density functional embedding theory  .... OFF
 Long-range corrected/Screened/Range-Separated Hybrid DFT is turned on
   Amount of maximum screened exact exchange              ....  0.804272
   Range separation parameter mu (erf(mu*r12)/r12)        ....  0.250000


General Settings:
 Integral files         IntName         .... config_8071
 Hartree-Fock type      HFTyp           .... RHF
 Total Charge           Charge          ....    0
 Multiplicity           Mult            ....    1
 Number of Electrons    NEL             ....  134
 Basis Dimension        Dim             ....  322
 Nuclear Repulsion      ENuc            ....   1294.7555745505 Eh

Convergence Acceleration:
 DIIS                   CNVDIIS         .... on
   Start iteration      DIISMaxIt       ....    12
   Startup error        DIISStart       ....  0.200000
   # of expansion vecs  DIISMaxEq       ....     5
   Bias factor          DIISBfac        ....   1.050
   Max. coefficient     DIISMaxC        ....  10.000
 Newton-Raphson         CNVNR           .... off
 SOSCF                  CNVSOSCF        .... on
   Start iteration      SOSCFMaxIt      ....   150
   Startup grad/error   SOSCFStart      ....  0.003300
 Level Shifting         CNVShift        .... on
   Level shift para.    LevelShift      ....    0.2500
   Turn off err/grad.   ShiftErr        ....    0.0010
 Zerner damping         CNVZerner       .... off
 Static damping         CNVDamp         .... on
   Fraction old density DampFac         ....    0.7000
   Max. Damping (<1)    DampMax         ....    0.9800
   Min. Damping (>=0)   DampMin         ....    0.0000
   Turn off err/grad.   DampErr         ....    0.1000
 Fernandez-Rico         CNVRico         .... off

SCF Procedure:
 Maximum # iterations   MaxIter         ....   125
 SCF integral mode      SCFMode         .... Direct
   Integral package                     .... LIBINT
 Reset frequency        DirectResetFreq ....    20
 Integral Threshold     Thresh          ....  1.000e-10 Eh
 Primitive CutOff       TCut            ....  1.000e-11 Eh

Convergence Tolerance:
 Convergence Check Mode ConvCheckMode   .... Total+1el-Energy
 Convergence forced     ConvForced      .... 0
 Energy Change          TolE            ....  1.000e-06 Eh
 1-El. energy change                    ....  1.000e-03 Eh
 Orbital Gradient       TolG            ....  5.000e-05
 Orbital Rotation angle TolX            ....  5.000e-05
 DIIS Error             TolErr          ....  1.000e-06


Diagonalization of the overlap matrix:
Smallest eigenvalue                        ... 5.064e-04
Time for diagonalization                   ...    0.015 sec
Threshold for overlap eigenvalues          ... 1.000e-08
Number of eigenvalues below threshold      ... 0
Time for construction of square roots      ...    0.032 sec
Total time needed                          ...    0.055 sec

-------------------
DFT GRID GENERATION
-------------------

General Integration Accuracy     IntAcc      ...  4.340
Radial Grid Type                 RadialGrid  ... Gauss-Chebyshev
Angular Grid (max. acc.)         AngularGrid ... Lebedev-110
Angular grid pruning method      GridPruning ... 3 (G Style)
Weight generation scheme         WeightScheme... Becke
Basis function cutoff            BFCut       ...    1.0000e-10
Integration weight cutoff        WCut        ...    1.0000e-14
Grids for H and He will be reduced by one unit

# of grid points (after initial pruning)     ...  41088 (   0.0 sec)
# of grid points (after weights+screening)   ...  36868 (   0.0 sec)
nearest neighbour list constructed           ...    0.0 sec
Grid point re-assignment to atoms done       ...    0.0 sec
Grid point division into batches done        ...    0.0 sec
Reduced shell lists constructed in    0.1 sec

Total number of grid points                  ...    36868
Total number of batches                      ...      595
Average number of points per batch           ...       61
Average number of grid points per atom       ...     1084
Average number of shells per batch           ...    76.87 (49.92%)
Average number of basis functions per batch  ...   150.97 (46.89%)
Average number of large shells per batch     ...    49.08 (63.84%)
Average number of large basis fcns per batch ...   100.21 (66.37%)
Maximum spatial batch extension              ...  15.15, 14.23, 16.57 au
Average spatial batch extension              ...   0.23,  0.22,  0.25 au

Time for grid setup =    0.247 sec

------------------------------
INITIAL GUESS: MODEL POTENTIAL
------------------------------
Loading Hartree-Fock densities                     ... done
Calculating cut-offs                               ... done
Setting up the integral package                    ... done
Initializing the effective Hamiltonian             ... done
Starting the Coulomb interaction                   ... done (   0.0 sec)
Reading the grid                                   ... done
Mapping shells                                     ... done
Starting the XC term evaluation                    ... done (   0.0 sec)
  promolecular density results
     # of electrons  =    133.977939377
     EX              =   -126.757931129
     EC              =     -4.628706174
     EX+EC           =   -131.386637303
Transforming the Hamiltonian                       ... done (   0.0 sec)
Diagonalizing the Hamiltonian                      ... done (   0.0 sec)
Back transforming the eigenvectors                 ... done (   0.0 sec)
Now organizing SCF variables                       ... done
                      ------------------
                      INITIAL GUESS DONE (   0.7 sec)
                      ------------------
--------------
SCF ITERATIONS
--------------
ITER       Energy         Delta-E        Max-DP      RMS-DP      [F,P]     Damp
               ***  Starting incremental Fock matrix formation  ***
  0  -1339.4064100016   0.000000000000 0.06670252  0.00163959  0.1631007 0.7000
  1  -1339.6006353658  -0.194225364216 0.04495547  0.00119212  0.0987668 0.7000
                               ***Turning on DIIS***
  2  -1339.6941362467  -0.093500880926 0.08234672  0.00223383  0.0513227 0.0000
  3  -1339.8348453209  -0.140709074216 0.04396942  0.00101848  0.0425398 0.0000
  4  -1339.8655780455  -0.030732724594 0.00816468  0.00021322  0.0080771 0.0000
                      *** Initiating the SOSCF procedure ***
                           *** Shutting down DIIS ***
                      *** Re-Reading the Fockian *** 
                      *** Removing any level shift *** 
ITER      Energy       Delta-E        Grad      Rot      Max-DP    RMS-DP
  5  -1339.86655958  -0.0009815303  0.001665  0.001665  0.003322  0.000103
               *** Restarting incremental Fock matrix formation ***
  6  -1339.86675482  -0.0001952422  0.001467  0.004072  0.002604  0.000066
  7  -1339.86681935  -0.0000645354  0.000800  0.004984  0.002598  0.000063
  8  -1339.86683588  -0.0000165310  0.000404  0.000741  0.000805  0.000021
  9  -1339.86684069  -0.0000048039  0.000147  0.000442  0.000319  0.000009
 10  -1339.86684113  -0.0000004413  0.000071  0.000246  0.000155  0.000004
                 **** Energy Check signals convergence ****
              ***Rediagonalizing the Fockian in SOSCF/NRSCF***

               *****************************************************
               *                     SUCCESS                       *
               *           SCF CONVERGED AFTER  11 CYCLES          *
               *****************************************************

Setting up the final grid:

General Integration Accuracy     IntAcc      ...  4.670
Radial Grid Type                 RadialGrid  ... Gauss-Chebyshev
Angular Grid (max. acc.)         AngularGrid ... Lebedev-302
Angular grid pruning method      GridPruning ... 3 (G Style)
Weight generation scheme         WeightScheme... Becke
Basis function cutoff            BFCut       ...    1.0000e-10
Integration weight cutoff        WCut        ...    1.0000e-14
Grids for H and He will be reduced by one unit

# of grid points (after initial pruning)     ... 161752 (   0.0 sec)
# of grid points (after weights+screening)   ... 142295 (   0.2 sec)
nearest neighbour list constructed           ...    0.0 sec
Grid point re-assignment to atoms done       ...    0.0 sec
Grid point division into batches done        ...    0.5 sec
Reduced shell lists constructed in    0.6 sec

Total number of grid points                  ...   142295
Total number of batches                      ...     2240
Average number of points per batch           ...       63
Average number of grid points per atom       ...     4185
Average number of shells per batch           ...    70.07 (45.50%)
Average number of basis functions per batch  ...   137.32 (42.65%)
Average number of large shells per batch     ...    43.06 (61.46%)
Average number of large basis fcns per batch ...    87.28 (63.56%)
Maximum spatial batch extension              ...  13.25, 13.18, 14.84 au
Average spatial batch extension              ...   0.15,  0.14,  0.15 au

Final grid set up in    1.1 sec
Final integration                            ... done (   0.3 sec)
Change in XC energy                          ...     0.006483737
Integrated number of electrons               ...   134.000424686
Previous integrated no of electrons          ...   133.996127560

----------------
TOTAL SCF ENERGY
----------------

Total Energy       :        -1339.86035766 Eh          -36459.45389 eV

Components:
Nuclear Repulsion  :         1294.75557455 Eh           35232.09035 eV
Electronic Energy  :        -2634.61593221 Eh          -71691.54424 eV
One Electron Energy:        -4406.05594189 Eh         -119894.87752 eV
Two Electron Energy:         1771.44000969 Eh           48203.33327 eV

Virial components:
Potential Energy   :        -2671.72918914 Eh          -72701.44731 eV
Kinetic Energy     :         1331.86883149 Eh           36241.99341 eV
Virial Ratio       :            2.00600024


DFT components:
N(Alpha)           :       67.000212342770 electrons
N(Beta)            :       67.000212342770 electrons
N(Total)           :      134.000424685540 electrons
E(XC)              :      -94.316591437339 Eh       
DFET-embed. en.    :        0.000000000000 Eh       

---------------
SCF CONVERGENCE
---------------

  Last Energy change         ...   -2.6396e-07  Tolerance :   1.0000e-06
  Last MAX-Density change    ...    3.8975e-05  Tolerance :   1.0000e-05
  Last RMS-Density change    ...    6.8176e-07  Tolerance :   1.0000e-06
  Last Orbital Gradient      ...    7.1138e-06  Tolerance :   5.0000e-05
  Last Orbital Rotation      ...    2.0069e-05  Tolerance :   5.0000e-05

             **** THE GBW FILE WAS UPDATED (config_8071.gbw) ****
             **** DENSITY FILE WAS UPDATED (config_8071.scfp) ****
             **** ENERGY FILE WAS UPDATED (config_8071.en.tmp) ****
             **** THE GBW FILE WAS UPDATED (config_8071.gbw) ****
             **** DENSITY FILE WAS UPDATED (config_8071.scfp) ****
----------------
ORBITAL ENERGIES
----------------

  NO   OCC          E(Eh)            E(eV) 
   0   2.0000     -88.965971     -2420.8871 
   1   2.0000     -88.959745     -2420.7177 
   2   2.0000     -10.331317      -281.1294 
   3   2.0000     -10.320943      -280.8471 
   4   2.0000     -10.317539      -280.7545 
   5   2.0000     -10.309989      -280.5491 
   6   2.0000     -10.300939      -280.3028 
   7   2.0000     -10.297397      -280.2064 
   8   2.0000     -10.292434      -280.0714 
   9   2.0000     -10.290548      -280.0200 
  10   2.0000     -10.289909      -280.0026 
  11   2.0000     -10.288638      -279.9681 
  12   2.0000     -10.286369      -279.9063 
  13   2.0000     -10.285949      -279.8949 
  14   2.0000     -10.283007      -279.8148 
  15   2.0000     -10.277464      -279.6640 
  16   2.0000      -8.079173      -219.8455 
  17   2.0000      -8.075967      -219.7582 
  18   2.0000      -6.037851      -164.2983 
  19   2.0000      -6.034393      -164.2042 
  20   2.0000      -6.033930      -164.1916 
  21   2.0000      -6.030365      -164.0946 
  22   2.0000      -6.029796      -164.0791 
  23   2.0000      -6.026613      -163.9925 
  24   2.0000      -1.011884       -27.5348 
  25   2.0000      -0.986051       -26.8318 
  26   2.0000      -0.917873       -24.9766 
  27   2.0000      -0.914824       -24.8936 
  28   2.0000      -0.873312       -23.7640 
  29   2.0000      -0.852776       -23.2052 
  30   2.0000      -0.840942       -22.8832 
  31   2.0000      -0.818060       -22.2605 
  32   2.0000      -0.783885       -21.3306 
  33   2.0000      -0.773727       -21.0542 
  34   2.0000      -0.712742       -19.3947 
  35   2.0000      -0.693616       -18.8743 
  36   2.0000      -0.691250       -18.8099 
  37   2.0000      -0.665354       -18.1052 
  38   2.0000      -0.644134       -17.5278 
  39   2.0000      -0.620868       -16.8947 
  40   2.0000      -0.600499       -16.3404 
  41   2.0000      -0.578553       -15.7432 
  42   2.0000      -0.569514       -15.4973 
  43   2.0000      -0.551490       -15.0068 
  44   2.0000      -0.543946       -14.8015 
  45   2.0000      -0.529362       -14.4047 
  46   2.0000      -0.520656       -14.1678 
  47   2.0000      -0.518815       -14.1177 
  48   2.0000      -0.505740       -13.7619 
  49   2.0000      -0.500492       -13.6191 
  50   2.0000      -0.486181       -13.2296 
  51   2.0000      -0.479308       -13.0426 
  52   2.0000      -0.469003       -12.7622 
  53   2.0000      -0.465976       -12.6798 
  54   2.0000      -0.461311       -12.5529 
  55   2.0000      -0.451711       -12.2917 
  56   2.0000      -0.443047       -12.0559 
  57   2.0000      -0.432365       -11.7653 
  58   2.0000      -0.429365       -11.6836 
  59   2.0000      -0.426804       -11.6139 
  60   2.0000      -0.419867       -11.4252 
  61   2.0000      -0.417990       -11.3741 
  62   2.0000      -0.412224       -11.2172 
  63   2.0000      -0.347367        -9.4523 
  64   2.0000      -0.333548        -9.0763 
  65   2.0000      -0.328243        -8.9319 
  66   2.0000      -0.300561        -8.1787 
  67   0.0000       0.031963         0.8698 
  68   0.0000       0.071919         1.9570 
  69   0.0000       0.114811         3.1242 
  70   0.0000       0.121919         3.3176 
  71   0.0000       0.126044         3.4298 
  72   0.0000       0.138328         3.7641 
  73   0.0000       0.146320         3.9816 
  74   0.0000       0.154213         4.1963 
  75   0.0000       0.161266         4.3883 
  76   0.0000       0.168239         4.5780 
  77   0.0000       0.176707         4.8084 
  78   0.0000       0.186409         5.0724 
  79   0.0000       0.192553         5.2396 
  80   0.0000       0.196082         5.3357 
  81   0.0000       0.206939         5.6311 
  82   0.0000       0.213698         5.8150 
  83   0.0000       0.221711         6.0331 
  84   0.0000       0.225429         6.1342 
  85   0.0000       0.230790         6.2801 
  86   0.0000       0.234000         6.3675 
  87   0.0000       0.245123         6.6701 
  88   0.0000       0.250817         6.8251 
  89   0.0000       0.253360         6.8943 
  90   0.0000       0.254609         6.9283 
  91   0.0000       0.260792         7.0965 
  92   0.0000       0.289229         7.8703 
  93   0.0000       0.298079         8.1112 
  94   0.0000       0.302477         8.2308 
  95   0.0000       0.306750         8.3471 
  96   0.0000       0.337281         9.1779 
  97   0.0000       0.339826         9.2471 
  98   0.0000       0.361403         9.8343 
  99   0.0000       0.375377        10.2145 
 100   0.0000       0.389173        10.5899 
 101   0.0000       0.400005        10.8847 
 102   0.0000       0.422066        11.4850 
 103   0.0000       0.432173        11.7600 
 104   0.0000       0.438041        11.9197 
 105   0.0000       0.446882        12.1603 
 106   0.0000       0.463473        12.6117 
 107   0.0000       0.483436        13.1550 
 108   0.0000       0.487205        13.2575 
 109   0.0000       0.495586        13.4856 
 110   0.0000       0.500867        13.6293 
 111   0.0000       0.512610        13.9488 
 112   0.0000       0.515544        14.0287 
 113   0.0000       0.525413        14.2972 
 114   0.0000       0.532969        14.5028 
 115   0.0000       0.538142        14.6436 
 116   0.0000       0.549230        14.9453 
 117   0.0000       0.566184        15.4067 
 118   0.0000       0.568440        15.4680 
 119   0.0000       0.575463        15.6591 
 120   0.0000       0.578813        15.7503 
 121   0.0000       0.597224        16.2513 
 122   0.0000       0.601738        16.3741 
 123   0.0000       0.611163        16.6306 
 124   0.0000       0.619362        16.8537 
 125   0.0000       0.627156        17.0658 
 126   0.0000       0.637354        17.3433 
 127   0.0000       0.653186        17.7741 
 128   0.0000       0.653742        17.7892 
 129   0.0000       0.662556        18.0291 
 130   0.0000       0.678315        18.4579 
 131   0.0000       0.691180        18.8080 
 132   0.0000       0.696256        18.9461 
 133   0.0000       0.704852        19.1800 
 134   0.0000       0.706990        19.2382 
 135   0.0000       0.711573        19.3629 
 136   0.0000       0.724033        19.7019 
 137   0.0000       0.728800        19.8317 
 138   0.0000       0.733238        19.9524 
 139   0.0000       0.738018        20.0825 
 140   0.0000       0.741410        20.1748 
 141   0.0000       0.749951        20.4072 
 142   0.0000       0.755373        20.5547 
 143   0.0000       0.759402        20.6644 
 144   0.0000       0.761952        20.7338 
 145   0.0000       0.770901        20.9773 
 146   0.0000       0.774649        21.0793 
 147   0.0000       0.776481        21.1291 
 148   0.0000       0.779204        21.2032 
 149   0.0000       0.782874        21.3031 
 150   0.0000       0.789002        21.4698 
 151   0.0000       0.793912        21.6034 
 152   0.0000       0.797036        21.6884 
 153   0.0000       0.800515        21.7831 
 154   0.0000       0.803243        21.8574 
 155   0.0000       0.808607        22.0033 
 156   0.0000       0.811340        22.0777 
 157   0.0000       0.816496        22.2180 
 158   0.0000       0.821511        22.3544 
 159   0.0000       0.823425        22.4065 
 160   0.0000       0.829820        22.5806 
 161   0.0000       0.833671        22.6853 
 162   0.0000       0.840312        22.8660 
 163   0.0000       0.854655        23.2564 
 164   0.0000       0.859024        23.3752 
 165   0.0000       0.870575        23.6896 
 166   0.0000       0.883296        24.0357 
 167   0.0000       0.884192        24.0601 
 168   0.0000       0.893508        24.3136 
 169   0.0000       0.900499        24.5038 
 170   0.0000       0.905050        24.6277 
 171   0.0000       0.925271        25.1779 
 172   0.0000       0.926381        25.2081 
 173   0.0000       0.943710        25.6797 
 174   0.0000       0.960830        26.1455 
 175   0.0000       0.981131        26.6979 
 176   0.0000       0.997610        27.1463 
 177   0.0000       0.998983        27.1837 
 178   0.0000       1.021426        27.7944 
 179   0.0000       1.038739        28.2655 
 180   0.0000       1.055985        28.7348 
 181   0.0000       1.070334        29.1253 
 182   0.0000       1.089785        29.6546 
 183   0.0000       1.110100        30.2074 
 184   0.0000       1.116629        30.3850 
 185   0.0000       1.141089        31.0506 
 186   0.0000       1.147612        31.2281 
 187   0.0000       1.162695        31.6385 
 188   0.0000       1.164836        31.6968 
 189   0.0000       1.189194        32.3596 
 190   0.0000       1.208939        32.8969 
 191   0.0000       1.228234        33.4219 
 192   0.0000       1.240271        33.7495 
 193   0.0000       1.269269        34.5386 
 194   0.0000       1.281492        34.8712 
 195   0.0000       1.309377        35.6300 
 196   0.0000       1.349741        36.7283 
 197   0.0000       1.356759        36.9193 
 198   0.0000       1.366352        37.1803 
 199   0.0000       1.388450        37.7816 
 200   0.0000       1.411187        38.4004 
 201   0.0000       1.420150        38.6443 
 202   0.0000       1.438319        39.1386 
 203   0.0000       1.460520        39.7428 
 204   0.0000       1.476865        40.1875 
 205   0.0000       1.484083        40.3839 
 206   0.0000       1.490131        40.5485 
 207   0.0000       1.495465        40.6937 
 208   0.0000       1.515229        41.2315 
 209   0.0000       1.545490        42.0549 
 210   0.0000       1.562894        42.5285 
 211   0.0000       1.600556        43.5533 
 212   0.0000       1.628367        44.3101 
 213   0.0000       1.632433        44.4208 
 214   0.0000       1.638658        44.5902 
 215   0.0000       1.639924        44.6246 
 216   0.0000       1.673447        45.5368 
 217   0.0000       1.714880        46.6642 
 218   0.0000       1.765950        48.0540 
 219   0.0000       1.768536        48.1243 
 220   0.0000       1.782766        48.5115 
 221   0.0000       1.797553        48.9139 
 222   0.0000       1.822637        49.5965 
 223   0.0000       1.827264        49.7224 
 224   0.0000       1.830324        49.8056 
 225   0.0000       1.832093        49.8538 
 226   0.0000       1.844450        50.1900 
 227   0.0000       1.854187        50.4550 
 228   0.0000       1.856725        50.5241 
 229   0.0000       1.865676        50.7676 
 230   0.0000       1.871352        50.9221 
 231   0.0000       1.875008        51.0216 
 232   0.0000       1.881784        51.2059 
 233   0.0000       1.892381        51.4943 
 234   0.0000       1.902603        51.7725 
 235   0.0000       1.911024        52.0016 
 236   0.0000       1.913545        52.0702 
 237   0.0000       1.928990        52.4905 
 238   0.0000       1.933723        52.6193 
 239   0.0000       1.938062        52.7373 
 240   0.0000       1.944921        52.9240 
 241   0.0000       1.956130        53.2290 
 242   0.0000       1.966604        53.5140 
 243   0.0000       1.978769        53.8450 
 244   0.0000       1.979320        53.8600 
 245   0.0000       1.982926        53.9581 
 246   0.0000       1.992427        54.2167 
 247   0.0000       1.993869        54.2559 
 248   0.0000       2.014536        54.8183 
 249   0.0000       2.032043        55.2947 
 250   0.0000       2.044769        55.6410 
 251   0.0000       2.049837        55.7789 
 252   0.0000       2.053642        55.8824 
 253   0.0000       2.075619        56.4805 
 254   0.0000       2.086314        56.7715 
 255   0.0000       2.114328        57.5338 
 256   0.0000       2.130599        57.9766 
 257   0.0000       2.136514        58.1375 
 258   0.0000       2.154795        58.6349 
 259   0.0000       2.171902        59.1005 
 260   0.0000       2.180298        59.3289 
 261   0.0000       2.188004        59.5386 
 262   0.0000       2.211008        60.1646 
 263   0.0000       2.218643        60.3723 
 264   0.0000       2.248190        61.1763 
 265   0.0000       2.255537        61.3763 
 266   0.0000       2.274332        61.8877 
 267   0.0000       2.277730        61.9802 
 268   0.0000       2.284247        62.1575 
 269   0.0000       2.323083        63.2143 
 270   0.0000       2.330849        63.4256 
 271   0.0000       2.349327        63.9284 
 272   0.0000       2.367620        64.4262 
 273   0.0000       2.380188        64.7682 
 274   0.0000       2.406241        65.4772 
 275   0.0000       2.416009        65.7429 
 276   0.0000       2.427637        66.0594 
 277   0.0000       2.448371        66.6236 
 278   0.0000       2.475353        67.3578 
 279   0.0000       2.485673        67.6386 
 280   0.0000       2.490838        67.7792 
 281   0.0000       2.507573        68.2345 
 282   0.0000       2.531324        68.8808 
 283   0.0000       2.544741        69.2459 
 284   0.0000       2.548438        69.3465 
 285   0.0000       2.558025        69.6074 
 286   0.0000       2.573807        70.0368 
 287   0.0000       2.586055        70.3701 
 288   0.0000       2.613948        71.1291 
 289   0.0000       2.623668        71.3936 
 290   0.0000       2.653599        72.2081 
 291   0.0000       2.676010        72.8179 
 292   0.0000       2.693156        73.2845 
 293   0.0000       2.724260        74.1309 
 294   0.0000       2.739206        74.5376 
 295   0.0000       2.757916        75.0467 
 296   0.0000       2.770585        75.3915 
 297   0.0000       2.785254        75.7906 
 298   0.0000       2.817954        76.6804 
 299   0.0000       2.851929        77.6049 
 300   0.0000       2.873802        78.2001 
 301   0.0000       2.892739        78.7154 
 302   0.0000       2.896844        78.8271 
 303   0.0000       2.940408        80.0126 
 304   0.0000       2.955248        80.4164 
 305   0.0000       2.979283        81.0704 
 306   0.0000       2.987778        81.3016 
 307   0.0000       3.002774        81.7096 
 308   0.0000       3.026427        82.3533 
 309   0.0000       3.042430        82.7887 
 310   0.0000       3.047241        82.9196 
 311   0.0000       3.070602        83.5553 
 312   0.0000       3.093381        84.1752 
 313   0.0000       3.111166        84.6591 
 314   0.0000       3.120259        84.9066 
 315   0.0000       3.174754        86.3894 
 316   0.0000       3.183769        86.6348 
 317   0.0000       3.193923        86.9111 
 318   0.0000       3.231531        87.9344 
 319   0.0000       3.293560        89.6223 
 320   0.0000       3.430567        93.3505 
 321   0.0000       3.485461        94.8442 

                    ********************************
                    * MULLIKEN POPULATION ANALYSIS *
                    ********************************

-----------------------
MULLIKEN ATOMIC CHARGES
-----------------------
   0 S :    0.093777
   1 C :   -0.128036
   2 C :   -0.067401
   3 C :    0.030601
   4 C :   -0.136657
   5 H :   -0.015086
   6 C :    0.058521
   7 H :    0.020166
   8 H :    0.013940
   9 C :   -0.049803
  10 H :    0.038376
  11 H :    0.026704
  12 C :   -0.084821
  13 H :    0.038644
  14 H :    0.070518
  15 H :    0.026663
  16 S :    0.100489
  17 C :   -0.065811
  18 C :   -0.032992
  19 C :   -0.034060
  20 C :   -0.165419
  21 H :   -0.000326
  22 C :    0.098624
  23 H :    0.021897
  24 H :    0.014536
  25 C :   -0.113866
  26 H :    0.043580
  27 H :    0.037685
  28 C :   -0.028233
  29 H :    0.044125
  30 H :    0.028436
  31 H :    0.014371
  32 H :    0.049813
  33 H :    0.051044
Sum of atomic charges:    0.0000000

--------------------------------
MULLIKEN REDUCED ORBITAL CHARGES
--------------------------------
  0 S s       :     5.852533  s :     5.852533
      pz      :     3.550306  p :     9.959318
      px      :     3.352284
      py      :     3.056729
      dz2     :     0.013516  d :     0.094372
      dxz     :     0.017729
      dyz     :     0.015135
      dx2y2   :     0.032366
      dxy     :     0.015625
  1 C s       :     3.201902  s :     3.201902
      pz      :     1.027091  p :     2.892747
      px      :     0.909365
      py      :     0.956290
      dz2     :     0.004896  d :     0.033387
      dxz     :     0.005686
      dyz     :     0.005408
      dx2y2   :     0.009962
      dxy     :     0.007435
  2 C s       :     3.058198  s :     3.058198
      pz      :     1.003862  p :     2.963476
      px      :     0.979669
      py      :     0.979945
      dz2     :     0.005090  d :     0.045727
      dxz     :     0.006173
      dyz     :     0.009888
      dx2y2   :     0.010950
      dxy     :     0.013625
  3 C s       :     3.197171  s :     3.197171
      pz      :     0.972929  p :     2.736921
      px      :     0.939194
      py      :     0.824798
      dz2     :     0.006427  d :     0.035307
      dxz     :     0.005545
      dyz     :     0.005046
      dx2y2   :     0.010484
      dxy     :     0.007805
  4 C s       :     3.084041  s :     3.084041
      pz      :     1.060544  p :     3.008469
      px      :     1.008968
      py      :     0.938956
      dz2     :     0.006938  d :     0.044147
      dxz     :     0.005614
      dyz     :     0.006817
      dx2y2   :     0.014195
      dxy     :     0.010583
  5 H s       :     0.988443  s :     0.988443
      pz      :     0.005716  p :     0.026643
      px      :     0.005233
      py      :     0.015693
  6 C s       :     2.967267  s :     2.967267
      pz      :     1.024878  p :     2.937030
      px      :     0.926307
      py      :     0.985844
      dz2     :     0.004543  d :     0.037182
      dxz     :     0.008284
      dyz     :     0.009148
      dx2y2   :     0.011401
      dxy     :     0.003806
  7 H s       :     0.956533  s :     0.956533
      pz      :     0.009926  p :     0.023301
      px      :     0.004269
      py      :     0.009106
  8 H s       :     0.963253  s :     0.963253
      pz      :     0.005904  p :     0.022807
      px      :     0.004066
      py      :     0.012836
  9 C s       :     3.050945  s :     3.050945
      pz      :     0.979159  p :     2.962293
      px      :     0.970851
      py      :     1.012283
      dz2     :     0.005275  d :     0.036565
      dxz     :     0.010308
      dyz     :     0.007535
      dx2y2   :     0.009798
      dxy     :     0.003650
 10 H s       :     0.939334  s :     0.939334
      pz      :     0.007390  p :     0.022291
      px      :     0.010829
      py      :     0.004072
 11 H s       :     0.950524  s :     0.950524
      pz      :     0.005413  p :     0.022773
      px      :     0.004980
      py      :     0.012379
 12 C s       :     3.067316  s :     3.067316
      pz      :     0.971987  p :     2.990994
      px      :     1.031220
      py      :     0.987787
      dz2     :     0.002165  d :     0.026512
      dxz     :     0.008602
      dyz     :     0.007912
      dx2y2   :     0.005711
      dxy     :     0.002121
 13 H s       :     0.937990  s :     0.937990
      pz      :     0.008204  p :     0.023365
      px      :     0.010245
      py      :     0.004916
 14 H s       :     0.906948  s :     0.906948
      pz      :     0.006570  p :     0.022534
      px      :     0.011786
      py      :     0.004178
 15 H s       :     0.950945  s :     0.950945
      pz      :     0.007377  p :     0.022392
      px      :     0.004779
      py      :     0.010236
 16 S s       :     5.844437  s :     5.844437
      pz      :     3.178915  p :     9.943083
      px      :     3.486649
      py      :     3.277520
      dz2     :     0.037962  d :     0.111990
      dxz     :     0.014529
      dyz     :     0.016956
      dx2y2   :     0.020115
      dxy     :     0.022428
 17 C s       :     3.121496  s :     3.121496
      pz      :     0.977163  p :     2.906112
      px      :     1.005115
      py      :     0.923834
      dz2     :     0.009137  d :     0.038203
      dxz     :     0.007519
      dyz     :     0.009460
      dx2y2   :     0.005568
      dxy     :     0.006519
 18 C s       :     3.168200  s :     3.168200
      pz      :     0.920250  p :     2.828543
      px      :     0.974787
      py      :     0.933506
      dz2     :     0.009794  d :     0.036250
      dxz     :     0.008094
      dyz     :     0.009819
      dx2y2   :     0.003193
      dxy     :     0.005350
 19 C s       :     3.050551  s :     3.050551
      pz      :     0.985588  p :     2.938652
      px      :     0.977753
      py      :     0.975311
      dz2     :     0.009660  d :     0.044857
      dxz     :     0.009213
      dyz     :     0.012986
      dx2y2   :     0.007085
      dxy     :     0.005913
 20 C s       :     3.080098  s :     3.080098
      pz      :     0.886169  p :     3.039154
      px      :     1.104478
      py      :     1.048508
      dz2     :     0.013971  d :     0.046167
      dxz     :     0.007631
      dyz     :     0.009447
      dx2y2   :     0.006670
      dxy     :     0.008449
 21 H s       :     0.975239  s :     0.975239
      pz      :     0.004641  p :     0.025087
      px      :     0.008870
      py      :     0.011575
 22 C s       :     2.914641  s :     2.914641
      pz      :     0.958112  p :     2.949880
      px      :     0.997661
      py      :     0.994107
      dz2     :     0.010243  d :     0.036855
      dxz     :     0.005209
      dyz     :     0.007062
      dx2y2   :     0.008179
      dxy     :     0.006162
 23 H s       :     0.954575  s :     0.954575
      pz      :     0.004824  p :     0.023528
      px      :     0.012857
      py      :     0.005847
 24 H s       :     0.959648  s :     0.959648
      pz      :     0.006545  p :     0.025816
      px      :     0.005265
      py      :     0.014006
 25 C s       :     3.088142  s :     3.088142
      pz      :     0.991919  p :     2.989581
      px      :     1.003969
      py      :     0.993693
      dz2     :     0.009641  d :     0.036143
      dxz     :     0.005063
      dyz     :     0.007058
      dx2y2   :     0.007658
      dxy     :     0.006723
 26 H s       :     0.935773  s :     0.935773
      pz      :     0.003787  p :     0.020647
      px      :     0.011427
      py      :     0.005433
 27 H s       :     0.940666  s :     0.940666
      pz      :     0.006095  p :     0.021650
      px      :     0.003563
      py      :     0.011991
 28 C s       :     3.003729  s :     3.003729
      pz      :     0.971741  p :     2.996597
      px      :     1.019205
      py      :     1.005651
      dz2     :     0.006437  d :     0.027908
      dxz     :     0.004863
      dyz     :     0.007296
      dx2y2   :     0.004812
      dxy     :     0.004500
 29 H s       :     0.932942  s :     0.932942
      pz      :     0.004564  p :     0.022933
      px      :     0.005447
      py      :     0.012921
 30 H s       :     0.948675  s :     0.948675
      pz      :     0.004536  p :     0.022888
      px      :     0.013513
      py      :     0.004840
 31 H s       :     0.959153  s :     0.959153
      pz      :     0.007680  p :     0.026476
      px      :     0.008569
      py      :     0.010228
 32 H s       :     0.926295  s :     0.926295
      pz      :     0.005086  p :     0.023893
      px      :     0.005123
      py      :     0.013683
 33 H s       :     0.924925  s :     0.924925
      pz      :     0.009942  p :     0.024031
      px      :     0.006907
      py      :     0.007182


                     *******************************
                     * LOEWDIN POPULATION ANALYSIS *
                     *******************************

----------------------
LOEWDIN ATOMIC CHARGES
----------------------
   0 S :    0.361968
   1 C :   -0.177124
   2 C :   -0.067465
   3 C :   -0.056845
   4 C :   -0.177125
   5 H :    0.021007
   6 C :   -0.031058
   7 H :    0.028489
   8 H :    0.025067
   9 C :   -0.034690
  10 H :    0.027070
  11 H :    0.019931
  12 C :   -0.073293
  13 H :    0.022974
  14 H :    0.035801
  15 H :    0.030025
  16 S :    0.413906
  17 C :   -0.189226
  18 C :   -0.073184
  19 C :   -0.048320
  20 C :   -0.197292
  21 H :    0.023418
  22 C :   -0.022605
  23 H :    0.033093
  24 H :    0.022165
  25 C :   -0.042517
  26 H :    0.028322
  27 H :    0.027562
  28 C :   -0.065981
  29 H :    0.028566
  30 H :    0.029147
  31 H :    0.016527
  32 H :    0.030279
  33 H :    0.031407

-------------------------------
LOEWDIN REDUCED ORBITAL CHARGES
-------------------------------
  0 S s       :     5.543735  s :     5.543735
      pz      :     3.532345  p :     9.979076
      px      :     3.361200
      py      :     3.085531
      dz2     :     0.015966  d :     0.115221
      dxz     :     0.020912
      dyz     :     0.018228
      dx2y2   :     0.041413
      dxy     :     0.018702
  1 C s       :     2.936320  s :     2.936320
      pz      :     1.065129  p :     3.161780
      px      :     1.017952
      py      :     1.078700
      dz2     :     0.010375  d :     0.079024
      dxz     :     0.012186
      dyz     :     0.011614
      dx2y2   :     0.025202
      dxy     :     0.019646
  2 C s       :     2.850516  s :     2.850516
      pz      :     0.989772  p :     3.101676
      px      :     1.035116
      py      :     1.076788
      dz2     :     0.010885  d :     0.115273
      dxz     :     0.013687
      dyz     :     0.023221
      dx2y2   :     0.030275
      dxy     :     0.037205
  3 C s       :     2.853077  s :     2.853077
      pz      :     1.022194  p :     3.108899
      px      :     1.038767
      py      :     1.047938
      dz2     :     0.014158  d :     0.094868
      dxz     :     0.015840
      dyz     :     0.012631
      dx2y2   :     0.029332
      dxy     :     0.022907
  4 C s       :     2.914282  s :     2.914282
      pz      :     1.080884  p :     3.159136
      px      :     1.078438
      py      :     0.999814
      dz2     :     0.013949  d :     0.103707
      dxz     :     0.015018
      dyz     :     0.015586
      dx2y2   :     0.033375
      dxy     :     0.025780
  5 H s       :     0.900690  s :     0.900690
      pz      :     0.017177  p :     0.078302
      px      :     0.016951
      py      :     0.044175
  6 C s       :     2.822577  s :     2.822577
      pz      :     1.048287  p :     3.114792
      px      :     1.012350
      py      :     1.054155
      dz2     :     0.009627  d :     0.093689
      dxz     :     0.022734
      dyz     :     0.023105
      dx2y2   :     0.030018
      dxy     :     0.008206
  7 H s       :     0.904048  s :     0.904048
      pz      :     0.028598  p :     0.067463
      px      :     0.013908
      py      :     0.024957
  8 H s       :     0.907187  s :     0.907187
      pz      :     0.017974  p :     0.067747
      px      :     0.013412
      py      :     0.036361
  9 C s       :     2.840405  s :     2.840405
      pz      :     1.029863  p :     3.106747
      px      :     1.030375
      py      :     1.046509
      dz2     :     0.010436  d :     0.087538
      dxz     :     0.025700
      dyz     :     0.019729
      dx2y2   :     0.024337
      dxy     :     0.007335
 10 H s       :     0.906460  s :     0.906460
      pz      :     0.022463  p :     0.066469
      px      :     0.031420
      py      :     0.012587
 11 H s       :     0.912421  s :     0.912421
      pz      :     0.016752  p :     0.067648
      px      :     0.014551
      py      :     0.036344
 12 C s       :     2.855123  s :     2.855123
      pz      :     1.033861  p :     3.151660
      px      :     1.072283
      py      :     1.045516
      dz2     :     0.004295  d :     0.066511
      dxz     :     0.021722
      dyz     :     0.021384
      dx2y2   :     0.014362
      dxy     :     0.004748
 13 H s       :     0.909876  s :     0.909876
      pz      :     0.023489  p :     0.067150
      px      :     0.029010
      py      :     0.014650
 14 H s       :     0.900053  s :     0.900053
      pz      :     0.019079  p :     0.064145
      px      :     0.032720
      py      :     0.012347
 15 H s       :     0.908742  s :     0.908742
      pz      :     0.020129  p :     0.061234
      px      :     0.012276
      py      :     0.028829
 16 S s       :     5.490282  s :     5.490282
      pz      :     3.208742  p :     9.956654
      px      :     3.463725
      py      :     3.284187
      dz2     :     0.048596  d :     0.139158
      dxz     :     0.017109
      dyz     :     0.019949
      dx2y2   :     0.023917
      dxy     :     0.029587
 17 C s       :     2.913012  s :     2.913012
      pz      :     1.100028  p :     3.185208
      px      :     1.050246
      py      :     1.034934
      dz2     :     0.025295  d :     0.091007
      dxz     :     0.016347
      dyz     :     0.023954
      dx2y2   :     0.011299
      dxy     :     0.014111
 18 C s       :     2.856205  s :     2.856205
      pz      :     1.060959  p :     3.121994
      px      :     1.023250
      py      :     1.037785
      dz2     :     0.027748  d :     0.094985
      dxz     :     0.019942
      dyz     :     0.028625
      dx2y2   :     0.006195
      dxy     :     0.012476
 19 C s       :     2.853829  s :     2.853829
      pz      :     1.044300  p :     3.082954
      px      :     0.997253
      py      :     1.041401
      dz2     :     0.025397  d :     0.111537
      dxz     :     0.019866
      dyz     :     0.035416
      dx2y2   :     0.016304
      dxy     :     0.014554
 20 C s       :     2.895166  s :     2.895166
      pz      :     1.005832  p :     3.189462
      px      :     1.092030
      py      :     1.091600
      dz2     :     0.035070  d :     0.112665
      dxz     :     0.016723
      dyz     :     0.024799
      dx2y2   :     0.015548
      dxy     :     0.020525
 21 H s       :     0.901384  s :     0.901384
      pz      :     0.014920  p :     0.075198
      px      :     0.026470
      py      :     0.033808
 22 C s       :     2.807435  s :     2.807435
      pz      :     1.008654  p :     3.120415
      px      :     1.047523
      py      :     1.064239
      dz2     :     0.028031  d :     0.094754
      dxz     :     0.011966
      dyz     :     0.017942
      dx2y2   :     0.019087
      dxy     :     0.017729
 23 H s       :     0.899340  s :     0.899340
      pz      :     0.014537  p :     0.067567
      px      :     0.036335
      py      :     0.016696
 24 H s       :     0.898742  s :     0.898742
      pz      :     0.021796  p :     0.079093
      px      :     0.017250
      py      :     0.040048
 25 C s       :     2.848036  s :     2.848036
      pz      :     1.029695  p :     3.107983
      px      :     1.039258
      py      :     1.039030
      dz2     :     0.023737  d :     0.086498
      dxz     :     0.010581
      dyz     :     0.016818
      dx2y2   :     0.017503
      dxy     :     0.017858
 26 H s       :     0.910696  s :     0.910696
      pz      :     0.011933  p :     0.060982
      px      :     0.033320
      py      :     0.015729
 27 H s       :     0.907653  s :     0.907653
      pz      :     0.018116  p :     0.064785
      px      :     0.011611
      py      :     0.035057
 28 C s       :     2.837657  s :     2.837657
      pz      :     1.023996  p :     3.157808
      px      :     1.066315
      py      :     1.067496
      dz2     :     0.018397  d :     0.070517
      dxz     :     0.011038
      dyz     :     0.016262
      dx2y2   :     0.013787
      dxy     :     0.011033
 29 H s       :     0.907125  s :     0.907125
      pz      :     0.014737  p :     0.064309
      px      :     0.015201
      py      :     0.034372
 30 H s       :     0.908430  s :     0.908430
      pz      :     0.013669  p :     0.062423
      px      :     0.036300
      py      :     0.012454
 31 H s       :     0.908089  s :     0.908089
      pz      :     0.023673  p :     0.075384
      px      :     0.022726
      py      :     0.028985
 32 H s       :     0.895592  s :     0.895592
      pz      :     0.016914  p :     0.074129
      px      :     0.018256
      py      :     0.038959
 33 H s       :     0.893699  s :     0.893699
      pz      :     0.028205  p :     0.074894
      px      :     0.022109
      py      :     0.024579


                      *****************************
                      * MAYER POPULATION ANALYSIS *
                      *****************************

  NA   - Mulliken gross atomic population
  ZA   - Total nuclear charge
  QA   - Mulliken gross atomic charge
  VA   - Mayer's total valence
  BVA  - Mayer's bonded valence
  FA   - Mayer's free valence

  ATOM       NA         ZA         QA         VA         BVA        FA
  0 S     15.9062    16.0000     0.0938     2.4338     2.4338     0.0000
  1 C      6.1280     6.0000    -0.1280     3.8534     3.8534    -0.0000
  2 C      6.0674     6.0000    -0.0674     3.9764     3.9764    -0.0000
  3 C      5.9694     6.0000     0.0306     3.9173     3.9173    -0.0000
  4 C      6.1367     6.0000    -0.1367     3.8765     3.8765     0.0000
  5 H      1.0151     1.0000    -0.0151     1.0148     1.0148     0.0000
  6 C      5.9415     6.0000     0.0585     3.9716     3.9716     0.0000
  7 H      0.9798     1.0000     0.0202     0.9821     0.9821    -0.0000
  8 H      0.9861     1.0000     0.0139     0.9929     0.9929     0.0000
  9 C      6.0498     6.0000    -0.0498     4.0387     4.0387     0.0000
 10 H      0.9616     1.0000     0.0384     0.9780     0.9780    -0.0000
 11 H      0.9733     1.0000     0.0267     0.9833     0.9833     0.0000
 12 C      6.0848     6.0000    -0.0848     3.9798     3.9798     0.0000
 13 H      0.9614     1.0000     0.0386     0.9855     0.9855     0.0000
 14 H      0.9295     1.0000     0.0705     0.9916     0.9916    -0.0000
 15 H      0.9733     1.0000     0.0267     0.9876     0.9876     0.0000
 16 S     15.8995    16.0000     0.1005     2.4674     2.4674     0.0000
 17 C      6.0658     6.0000    -0.0658     3.8497     3.8497     0.0000
 18 C      6.0330     6.0000    -0.0330     3.9750     3.9750    -0.0000
 19 C      6.0341     6.0000    -0.0341     4.0171     4.0171     0.0000
 20 C      6.1654     6.0000    -0.1654     3.9296     3.9296     0.0000
 21 H      1.0003     1.0000    -0.0003     0.9981     0.9981     0.0000
 22 C      5.9014     6.0000     0.0986     3.9899     3.9899    -0.0000
 23 H      0.9781     1.0000     0.0219     0.9899     0.9899     0.0000
 24 H      0.9855     1.0000     0.0145     0.9949     0.9949     0.0000
 25 C      6.1139     6.0000    -0.1139     4.0917     4.0917    -0.0000
 26 H      0.9564     1.0000     0.0436     0.9790     0.9790    -0.0000
 27 H      0.9623     1.0000     0.0377     0.9771     0.9771    -0.0000
 28 C      6.0282     6.0000    -0.0282     3.9821     3.9821     0.0000
 29 H      0.9559     1.0000     0.0441     0.9845     0.9845     0.0000
 30 H      0.9716     1.0000     0.0284     0.9981     0.9981     0.0000
 31 H      0.9856     1.0000     0.0144     0.9911     0.9911     0.0000
 32 H      0.9502     1.0000     0.0498     1.0066     1.0066    -0.0000
 33 H      0.9490     1.0000     0.0510     0.9951     0.9951    -0.0000

  Mayer bond orders larger than 0.100000
B(  0-S ,  1-C ) :   1.1207 B(  0-S ,  4-C ) :   1.1261 B(  1-C ,  2-C ) :   1.6228 
B(  1-C , 32-H ) :   0.9657 B(  2-C ,  3-C ) :   1.2107 B(  2-C ,  6-C ) :   1.0346 
B(  3-C ,  4-C ) :   1.5960 B(  3-C ,  5-H ) :   1.0039 B(  4-C , 20-C ) :   1.0176 
B(  6-C ,  7-H ) :   0.9332 B(  6-C ,  8-H ) :   0.9398 B(  6-C ,  9-C ) :   1.0697 
B(  9-C , 10-H ) :   0.9589 B(  9-C , 11-H ) :   0.9538 B(  9-C , 12-C ) :   1.0549 
B( 12-C , 13-H ) :   0.9759 B( 12-C , 14-H ) :   0.9742 B( 12-C , 15-H ) :   0.9763 
B( 16-S , 17-C ) :   1.1529 B( 16-S , 20-C ) :   1.1266 B( 17-C , 18-C ) :   1.6438 
B( 17-C , 33-H ) :   0.9653 B( 18-C , 19-C ) :   1.1996 B( 18-C , 21-H ) :   0.9966 
B( 19-C , 20-C ) :   1.6504 B( 19-C , 22-C ) :   1.0385 B( 22-C , 23-H ) :   0.9273 
B( 22-C , 24-H ) :   0.9311 B( 22-C , 25-C ) :   1.0877 B( 25-C , 26-H ) :   0.9490 
B( 25-C , 27-H ) :   0.9590 B( 25-C , 28-C ) :   1.0696 B( 28-C , 29-H ) :   0.9776 
B( 28-C , 30-H ) :   0.9720 B( 28-C , 31-H ) :   0.9749 

-------
TIMINGS
-------

Total SCF time: 0 days 0 hours 0 min 33 sec 

Total time                  ....      33.146 sec
Sum of individual times     ....      32.058 sec  ( 96.7%)

Fock matrix formation       ....      29.687 sec  ( 89.6%)
  XC integration            ....       1.812 sec  (  6.1% of F)
    Basis function eval.    ....       0.240 sec  ( 13.3% of XC)
    Density eval.           ....       0.187 sec  ( 10.3% of XC)
    XC-Functional eval.     ....       0.202 sec  ( 11.2% of XC)
    XC-Potential eval.      ....       0.213 sec  ( 11.8% of XC)
Diagonalization             ....       0.149 sec  (  0.4%)
Density matrix formation    ....       0.023 sec  (  0.1%)
Population analysis         ....       0.046 sec  (  0.1%)
Initial guess               ....       0.480 sec  (  1.4%)
Orbital Transformation      ....       0.000 sec  (  0.0%)
Orbital Orthonormalization  ....       0.000 sec  (  0.0%)
DIIS solution               ....       0.165 sec  (  0.5%)
SOSCF solution              ....       0.127 sec  (  0.4%)
Grid generation             ....       1.381 sec  (  4.2%)


-------------------------------------------------------------------------------
                          DFT DISPERSION CORRECTION                            
                                                                               
                              DFTD3 V3.1  Rev 1                                
                              USING zero damping                               
-------------------------------------------------------------------------------
The omegaB97X-D3 functional is recognized. Fit by Chai et al.
Active option DFTDOPT                   ...         3   

molecular C6(AA) [au] = 14146.285798 


            DFT-D V3
 parameters
 s6 scaling factor         :     1.0000 
 rs6 scaling factor        :     1.2810 
 s8 scaling factor         :     1.0000 
 rs8 scaling factor        :     1.0940 
 Damping factor alpha6     :    14.0000 
 Damping factor alpha8     :    16.0000 
 ad hoc parameters k1-k3   :    16.0000     1.3333    -4.0000 

 Edisp/kcal,au: -9.272988492713  -0.014777446217 
 E6   /kcal   :  -4.207078604 
 E8   /kcal   :  -5.065909889 
 % E8         :  54.630822555 

-------------------------   ----------------
Dispersion correction           -0.014777446
-------------------------   ----------------


-------------------------   --------------------
FINAL SINGLE POINT ENERGY     -1339.875135102729
-------------------------   --------------------


                            ***************************************
                            *     ORCA property calculations      *
                            ***************************************

                                    ---------------------
                                    Active property flags
                                    ---------------------
   (+) Dipole Moment


------------------------------------------------------------------------------
                       ORCA ELECTRIC PROPERTIES CALCULATION
------------------------------------------------------------------------------

Dipole Moment Calculation                       ... on
Quadrupole Moment Calculation                   ... off
Polarizability Calculation                      ... off
GBWName                                         ... config_8071.gbw
Electron density file                           ... config_8071.scfp
The origin for moment calculation is the CENTER OF MASS  = (-135.275236, 71.436125 234.781592)

-------------
DIPOLE MOMENT
-------------
                                X             Y             Z
Electronic contribution:    -16.06218      -7.36587      17.92731
Nuclear contribution   :     16.36143       7.80551     -18.41733
                        -----------------------------------------
Total Dipole Moment    :      0.29925       0.43964      -0.49002
                        -----------------------------------------
Magnitude (a.u.)       :      0.72316
Magnitude (Debye)      :      1.83812



--------------------
Rotational spectrum 
--------------------
 
Rotational constants in cm-1:     0.017458     0.009346     0.007248 
Rotational constants in MHz :   523.365558   280.188703   217.281401 

 Dipole components along the rotational axes: 
x,y,z [a.u.] :    -0.021725     0.694027     0.202014 
x,y,z [Debye]:    -0.055220     1.764076     0.513478 

 

Timings for individual modules:

Sum of individual times         ...       34.531 sec (=   0.576 min)
GTO integral calculation        ...        0.988 sec (=   0.016 min)   2.9 %
SCF iterations                  ...       33.543 sec (=   0.559 min)  97.1 %
                             ****ORCA TERMINATED NORMALLY****
TOTAL RUN TIME: 0 days 0 hours 0 minutes 36 seconds 58 msec
