
                                 *****************
                                 * O   R   C   A *
                                 *****************

           --- An Ab Initio, DFT and Semiempirical electronic structure package ---

                  #######################################################
                  #                        -***-                        #
                  #          Department of theory and spectroscopy      #
                  #               Directorship: Frank Neese             #
                  #        Max Planck Institute fuer Kohlenforschung    #
                  #                Kaiser Wilhelm Platz 1               #
                  #                 D-45470 Muelheim/Ruhr               #
                  #                      Germany                        #
                  #                                                     #
                  #                  All rights reserved                #
                  #                        -***-                        #
                  #######################################################


                         Program Version 4.2.1 -  RELEASE  -


 With contributions from (in alphabetic order):
   Daniel Aravena         : Magnetic Suceptibility
   Michael Atanasov       : Ab Initio Ligand Field Theory (pilot matlab implementation)
   Alexander A. Auer      : GIAO ZORA, VPT2
   Ute Becker             : Parallelization
   Giovanni Bistoni       : ED, misc. LED, open-shell LED, HFLD
   Martin Brehm           : Molecular dynamics
   Dmytro Bykov           : SCF Hessian
   Vijay G. Chilkuri      : MRCI spin determinant printing, contributions to CSF-ICE
   Dipayan Datta          : RHF DLPNO-CCSD density
   Achintya Kumar Dutta   : EOM-CC, STEOM-CC
   Dmitry Ganyushin       : Spin-Orbit,Spin-Spin,Magnetic field MRCI
   Miquel Garcia          : C-PCM Hessian, Gaussian charge scheme
   Yang Guo               : DLPNO-NEVPT2, CIM, IAO-localization
   Andreas Hansen         : Spin unrestricted coupled pair/coupled cluster methods
   Benjamin Helmich-Paris : CASSCF linear response (MC-RPA)
   Lee Huntington         : MR-EOM, pCC
   Robert Izsak           : Overlap fitted RIJCOSX, COSX-SCS-MP3, EOM
   Christian Kollmar      : KDIIS, OOCD, Brueckner-CCSD(T), CCSD density
   Simone Kossmann        : Meta GGA functionals, TD-DFT gradient, OOMP2, MP2 Hessian
   Martin Krupicka        : AUTO-CI
   Lucas Lang             : DCDCAS
   Dagmar Lenk            : GEPOL surface, SMD
   Dimitrios Liakos       : Extrapolation schemes; Compound Job, initial MDCI parallelization
   Dimitrios Manganas     : Further ROCIS development; embedding schemes
   Dimitrios Pantazis     : SARC Basis sets
   Taras Petrenko         : DFT Hessian,TD-DFT gradient, ASA, ECA, R-Raman, ABS, FL, XAS/XES, NRVS
   Peter Pinski           : DLPNO-MP2, DLPNO-MP2 Gradient
   Christoph Reimann      : Effective Core Potentials
   Marius Retegan         : Local ZFS, SOC
   Christoph Riplinger    : Optimizer, TS searches, QM/MM, DLPNO-CCSD(T), (RO)-DLPNO pert. Triples
   Tobias Risthaus        : Range-separated hybrids, TD-DFT gradient, RPA, STAB
   Michael Roemelt        : Original ROCIS implementation
   Masaaki Saitow         : Open-shell DLPNO-CCSD energy and density
   Barbara Sandhoefer     : DKH picture change effects
   Avijit Sen             : IP-ROCIS
   Kantharuban Sivalingam : CASSCF convergence, NEVPT2, FIC-MRCI
   Bernardo de Souza      : ESD, SOC TD-DFT
   Georgi Stoychev        : AutoAux, RI-MP2 NMR
   Willem Van den Heuvel  : Paramagnetic NMR
   Boris Wezisla          : Elementary symmetry handling
   Frank Wennmohs         : Technical directorship


 We gratefully acknowledge several colleagues who have allowed us to
 interface, adapt or use parts of their codes:
   Stefan Grimme, W. Hujo, H. Kruse,             : VdW corrections, initial TS optimization,
                  C. Bannwarth                     DFT functionals, gCP, sTDA/sTD-DF
   Ed Valeev, F. Pavosevic, A. Kumar             : LibInt (2-el integral package), F12 methods
   Garnet Chan, S. Sharma, J. Yang, R. Olivares  : DMRG
   Ulf Ekstrom                                   : XCFun DFT Library
   Mihaly Kallay                                 : mrcc  (arbitrary order and MRCC methods)
   Andreas Klamt, Michael Diedenhofen            : otool_cosmo (COSMO solvation model)
   Jiri Pittner, Ondrej Demel                    : Mk-CCSD
   Frank Weinhold                                : gennbo (NPA and NBO analysis)
   Christopher J. Cramer and Donald G. Truhlar   : smd solvation model
   Lars Goerigk                                  : TD-DFT with DH, B97 family of functionals
   V. Asgeirsson, H. Jonsson                     : NEB implementation
   FAccTs GmbH                                   : IRC, NEB, NEB-TS, Multilevel, MM, QM/MM, CI optimization
   S Lehtola, MJT Oliveira, MAL Marques          : LibXC Library


 Your calculation uses the libint2 library for the computation of 2-el integrals
 For citations please refer to: http://libint.valeyev.net

 Your ORCA version has been built with support for libXC version: 4.2.3
 For citations please refer to: https://tddft.org/programs/libxc/

 This ORCA versions uses:
   CBLAS   interface :  Fast vector & matrix operations
   LAPACKE interface :  Fast linear algebra routines
   SCALAPACK package :  Parallel linear algebra routines


Your calculation utilizes the atom-pairwise dispersion correction
with the zero-damping scheme (D30)
Cite in your paper:
S.Grimme, J.Antony, S.Ehrlich and H.Krieg, J.Chem.Phys., 132, (2010), 154104 
   

XCFun DFT library Copyright 2009-2010 Ulf Ekstrom and contributors.
See http://admol.org/xcfun for more information. This is free soft-
ware; see the source code for copying conditions. There is ABSOLUTELY
NO WARRANTY; not even for MERCHANTABILITY or FITNESS FOR A PARTICULAR
PURPOSE. For details see the documentation. Scientific users of this 
library should cite U. Ekstrom, L. Visscher, R. Bast, A. J. Thorvald-
sen and K. Ruud; J.Chem.Theor.Comp. 2010, DOI: 10.1021/ct100117s
XCFun Version 0.99 
----- Orbital basis set information -----
Your calculation utilizes the basis: def2-SVP
   F. Weigend and R. Ahlrichs, Phys. Chem. Chem. Phys. 7, 3297 (2005).

================================================================================
                                        WARNINGS
                       Please study these warnings very carefully!
================================================================================


INFO   : the flag for use of LIBINT has been found!

================================================================================
                                       INPUT FILE
================================================================================
NAME = config_4881.inp
|  1> ! wB97X-D3 SP def2-SVP
|  2> %pal
|  3> nprocs 16
|  4> end
|  5> 
|  6> * xyz 0 1
|  7> S 	 0.788603 	 8.5591 	 80.6724 	 
|  8> C 	 0.499626 	 7.32564 	 79.4111 	 
|  9> C 	 -0.775092 	 7.43289 	 78.8741 	 
| 10> C 	 -1.52287 	 8.49875 	 79.5211 	 
| 11> C 	 -0.857359 	 9.14411 	 80.5253 	 
| 12> H 	 -2.50978 	 8.7843 	 79.2527 	 
| 13> C 	 -1.41757 	 6.44317 	 77.9296 	 
| 14> H 	 -2.11799 	 5.78332 	 78.4385 	 
| 15> H 	 -0.589816 	 5.79555 	 77.7328 	 
| 16> C 	 -2.12899 	 6.89765 	 76.6628 	 
| 17> H 	 -3.20798 	 7.09543 	 76.7916 	 
| 18> H 	 -1.81546 	 7.96565 	 76.5746 	 
| 19> C 	 -1.72358 	 6.03454 	 75.4709 	 
| 20> H 	 -0.665623 	 5.67454 	 75.4801 	 
| 21> H 	 -2.29383 	 5.01867 	 75.513 	 
| 22> H 	 -1.80512 	 6.52118 	 74.4666 	 
| 23> S 	 -0.830586 	 11.8258 	 81.2074 	 
| 24> C 	 -2.01407 	 12.4275 	 82.2802 	 
| 25> C 	 -2.87285 	 11.4383 	 82.6828 	 
| 26> C 	 -2.58481 	 10.1423 	 82.1255 	 
| 27> C 	 -1.46911 	 10.1568 	 81.3746 	 
| 28> H 	 -3.66622 	 11.6681 	 83.4064 	 
| 29> C 	 -3.39497 	 8.87735 	 82.4917 	 
| 30> H 	 -3.39378 	 8.67424 	 83.5265 	 
| 31> H 	 -2.74894 	 8.07217 	 82.1855 	 
| 32> C 	 -4.7574 	 8.7888 	 81.6943 	 
| 33> H 	 -5.21475 	 7.94656 	 82.266 	 
| 34> H 	 -4.67915 	 8.52204 	 80.6513 	 
| 35> C 	 -5.76673 	 9.89176 	 81.9665 	 
| 36> H 	 -5.93378 	 10.0892 	 83.0102 	 
| 37> H 	 -6.77219 	 9.60759 	 81.6079 	 
| 38> H 	 -5.46309 	 10.7788 	 81.4637 	 
| 39> H 	 1.11123 	 6.43311 	 79.3098 	 
| 40> H 	 -2.12346 	 13.4702 	 82.5434 	 
| 41> *
| 42> 
| 43>                          ****END OF INPUT****
================================================================================

                       ****************************
                       * Single Point Calculation *
                       ****************************

---------------------------------
CARTESIAN COORDINATES (ANGSTROEM)
---------------------------------
  S      0.788603    8.559100   80.672400
  C      0.499626    7.325640   79.411100
  C     -0.775092    7.432890   78.874100
  C     -1.522870    8.498750   79.521100
  C     -0.857359    9.144110   80.525300
  H     -2.509780    8.784300   79.252700
  C     -1.417570    6.443170   77.929600
  H     -2.117990    5.783320   78.438500
  H     -0.589816    5.795550   77.732800
  C     -2.128990    6.897650   76.662800
  H     -3.207980    7.095430   76.791600
  H     -1.815460    7.965650   76.574600
  C     -1.723580    6.034540   75.470900
  H     -0.665623    5.674540   75.480100
  H     -2.293830    5.018670   75.513000
  H     -1.805120    6.521180   74.466600
  S     -0.830586   11.825800   81.207400
  C     -2.014070   12.427500   82.280200
  C     -2.872850   11.438300   82.682800
  C     -2.584810   10.142300   82.125500
  C     -1.469110   10.156800   81.374600
  H     -3.666220   11.668100   83.406400
  C     -3.394970    8.877350   82.491700
  H     -3.393780    8.674240   83.526500
  H     -2.748940    8.072170   82.185500
  C     -4.757400    8.788800   81.694300
  H     -5.214750    7.946560   82.266000
  H     -4.679150    8.522040   80.651300
  C     -5.766730    9.891760   81.966500
  H     -5.933780   10.089200   83.010200
  H     -6.772190    9.607590   81.607900
  H     -5.463090   10.778800   81.463700
  H      1.111230    6.433110   79.309800
  H     -2.123460   13.470200   82.543400

----------------------------
CARTESIAN COORDINATES (A.U.)
----------------------------
  NO LB      ZA    FRAG     MASS         X           Y           Z
   0 S    16.0000    0    32.060    1.490244   16.174355  152.448743
   1 C     6.0000    0    12.011    0.944156   13.843453  150.065231
   2 C     6.0000    0    12.011   -1.464712   14.046126  149.050448
   3 C     6.0000    0    12.011   -2.877807   16.060310  150.273101
   4 C     6.0000    0    12.011   -1.620174   17.279864  152.170764
   5 H     1.0000    0     1.008   -4.742797   16.599921  149.765898
   6 C     6.0000    0    12.011   -2.678819   12.175827  147.265602
   7 H     1.0000    0     1.008   -4.002421   10.928891  148.227283
   8 H     1.0000    0     1.008   -1.114591   10.952002  146.893704
   9 C     6.0000    0    12.011   -4.023208   13.034669  144.871697
  10 H     1.0000    0     1.008   -6.062204   13.408420  145.115093
  11 H     1.0000    0     1.008   -3.430722   15.052897  144.705023
  12 C     6.0000    0    12.011   -3.257094   11.403628  142.619332
  13 H     1.0000    0     1.008   -1.257845   10.723327  142.636718
  14 H     1.0000    0     1.008   -4.334710    9.483912  142.698890
  15 H     1.0000    0     1.008   -3.411182   12.323244  140.721480
  16 S    16.0000    0    32.060   -1.569580   22.347523  153.459746
  17 C     6.0000    0    12.011   -3.806041   23.484572  155.487044
  18 C     6.0000    0    12.011   -5.428900   21.615254  156.247848
  19 C     6.0000    0    12.011   -4.884583   19.166169  155.194704
  20 C     6.0000    0    12.011   -2.776216   19.193570  153.775708
  21 H     1.0000    0     1.008   -6.928152   22.049514  157.615254
  22 C     6.0000    0    12.011   -6.415564   16.775760  155.886721
  23 H     1.0000    0     1.008   -6.413315   16.391938  157.842210
  24 H     1.0000    0     1.008   -5.194744   15.254191  155.308087
  25 C     6.0000    0    12.011   -8.990183   16.608425  154.379854
  26 H     1.0000    0     1.008   -9.854449   15.016822  155.460210
  27 H     1.0000    0     1.008   -8.842312   16.104322  152.408869
  28 C     6.0000    0    12.011  -10.897540   18.692717  154.894237
  29 H     1.0000    0     1.008  -11.213219   19.065825  156.866544
  30 H     1.0000    0     1.008  -12.797584   18.155714  154.216581
  31 H     1.0000    0     1.008  -10.323744   20.368980  153.944083
  32 H     1.0000    0     1.008    2.099920   12.156816  149.873802
  33 H     1.0000    0     1.008   -4.012758   25.454989  155.984420

--------------------------------
INTERNAL COORDINATES (ANGSTROEM)
--------------------------------
 S      0   0   0     0.000000000000     0.00000000     0.00000000
 C      1   0   0     1.787682569174     0.00000000     0.00000000
 C      2   1   0     1.387363521945   111.60953765     0.00000000
 C      3   2   1     1.453904562509   110.91539909   358.43534264
 C      4   3   2     1.366679209149   115.00556491   358.39559959
 H      4   3   2     1.061870383145   124.24102582   177.92265264
 C      3   2   1     1.511424463506   125.57904875   188.84492170
 H      7   3   2     1.088563001806   112.22862451   100.97055196
 H      7   3   2     1.069260767501   100.51854256   352.65054792
 C      7   3   2     1.522318208129   121.54544354   227.28743770
 H     10   7   3     1.104502507240   114.39037359   269.32925287
 H     10   7   3     1.116559134529   102.71311261    12.54591930
 C     10   7   3     1.526414671772   110.90706829   134.56341209
 H     13  10   7     1.117567740161   115.28672830   325.71018248
 H     13  10   7     1.165739820629   109.55011175    78.13304394
 H     13  10   7     1.118966376260   115.82111150   206.07018734
 S      5   4   3     2.767207700847   130.04924342   141.53276990
 C     17   5   4     1.706920357912   119.32912706    87.89259417
 C     18  17   5     1.370440253495   111.38759527   359.92369130
 C     19  18  17     1.439849412821   114.24456884     0.23123982
 C     20  19  18     1.344934031839   111.86043301     3.63171905
 H     19  18  17     1.098107898569   119.68781857   177.66441247
 C     20  19  18     1.546143644071   122.67684712   177.52086869
 H     23  20  19     1.054545460471   112.91698899   302.49046604
 H     23  20  19     1.076767399813   103.29996483   198.02402467
 C     23  20  19     1.581108271878   112.20284523    80.33860710
 H     26  23  20     1.115965111507    97.87700318   190.50312885
 H     26  23  20     1.079413248066   116.02036266    73.92133224
 C     26  23  20     1.519658070258   116.18927872   296.45543030
 H     29  26  23     1.075266453536   114.22470513   311.94918398
 H     29  26  23     1.104670249667   111.08052630   196.28659353
 H     29  26  23     1.063882066396   109.32552356    76.31509735
 H      2   1   3     1.086706466216   122.78460461   197.86462576
 H     18  17   5     1.080954995409   124.27935252   184.70834754

---------------------------
INTERNAL COORDINATES (A.U.)
---------------------------
 S      0   0   0     0.000000000000     0.00000000     0.00000000
 C      1   0   0     3.378230470124     0.00000000     0.00000000
 C      2   1   0     2.621737104669   111.60953765     0.00000000
 C      3   2   1     2.747481448000   110.91539909   358.43534264
 C      4   3   2     2.582649418216   115.00556491   358.39559959
 H      4   3   2     2.006644213866   124.24102582   177.92265264
 C      3   2   1     2.856178308135   125.57904875   188.84492170
 H      7   3   2     2.057085952932   112.22862451   100.97055196
 H      7   3   2     2.020610016323   100.51854256   352.65054792
 C      7   3   2     2.876764502045   121.54544354   227.28743770
 H     10   7   3     2.087207252913   114.39037359   269.32925287
 H     10   7   3     2.109990976588   102.71311261    12.54591930
 C     10   7   3     2.884505696448   110.90706829   134.56341209
 H     13  10   7     2.111896965010   115.28672830   325.71018248
 H     13  10   7     2.202929004395   109.55011175    78.13304394
 H     13  10   7     2.114540004197   115.82111150   206.07018734
 S      5   4   3     5.229264710279   130.04924342   141.53276990
 C     17   5   4     3.225612008869   119.32912706    87.89259417
 C     18  17   5     2.589756762008   111.38759527   359.92369130
 C     19  18  17     2.720921064318   114.24456884     0.23123982
 C     20  19  18     2.541556988367   111.86043301     3.63171905
 H     19  18  17     2.075123193792   119.68781857   177.66441247
 C     20  19  18     2.921788050997   122.67684712   177.52086869
 H     23  20  19     1.992802116060   112.91698899   302.49046604
 H     23  20  19     2.034795495581   103.29996483   198.02402467
 C     23  20  19     2.987861621926   112.20284523    80.33860710
 H     26  23  20     2.108868435758    97.87700318   190.50312885
 H     26  23  20     2.039795424171   116.02036266    73.92133224
 C     26  23  20     2.871737569991   116.18927872   296.45543030
 H     29  26  23     2.031959118176   114.22470513   311.94918398
 H     29  26  23     2.087524240162   111.08052630   196.28659353
 H     29  26  23     2.010445744280   109.32552356    76.31509735
 H      2   1   3     2.053577609110   122.78460461   197.86462576
 H     18  17   5     2.042708904417   124.27935252   184.70834754

---------------------
BASIS SET INFORMATION
---------------------
There are 3 groups of distinct atoms

 Group   1 Type S   : 10s7p1d contracted to 4s3p1d pattern {5311/511/1}
 Group   2 Type C   : 7s4p1d contracted to 3s2p1d pattern {511/31/1}
 Group   3 Type H   : 4s1p contracted to 2s1p pattern {31/1}

Atom   0S    basis set group =>   1
Atom   1C    basis set group =>   2
Atom   2C    basis set group =>   2
Atom   3C    basis set group =>   2
Atom   4C    basis set group =>   2
Atom   5H    basis set group =>   3
Atom   6C    basis set group =>   2
Atom   7H    basis set group =>   3
Atom   8H    basis set group =>   3
Atom   9C    basis set group =>   2
Atom  10H    basis set group =>   3
Atom  11H    basis set group =>   3
Atom  12C    basis set group =>   2
Atom  13H    basis set group =>   3
Atom  14H    basis set group =>   3
Atom  15H    basis set group =>   3
Atom  16S    basis set group =>   1
Atom  17C    basis set group =>   2
Atom  18C    basis set group =>   2
Atom  19C    basis set group =>   2
Atom  20C    basis set group =>   2
Atom  21H    basis set group =>   3
Atom  22C    basis set group =>   2
Atom  23H    basis set group =>   3
Atom  24H    basis set group =>   3
Atom  25C    basis set group =>   2
Atom  26H    basis set group =>   3
Atom  27H    basis set group =>   3
Atom  28C    basis set group =>   2
Atom  29H    basis set group =>   3
Atom  30H    basis set group =>   3
Atom  31H    basis set group =>   3
Atom  32H    basis set group =>   3
Atom  33H    basis set group =>   3


           ************************************************************
           *        Program running with 16 parallel MPI-processes    *
           *              working on a common directory               *
           ************************************************************
------------------------------------------------------------------------------
                           ORCA GTO INTEGRAL CALCULATION
------------------------------------------------------------------------------

                         BASIS SET STATISTICS AND STARTUP INFO

 # of primitive gaussian shells          ...  294
 # of primitive gaussian functions       ...  534
 # of contracted shells                  ...  154
 # of contracted basis functions         ...  322
 Highest angular momentum                ...    2
 Maximum contraction depth               ...    5
 Integral package used                   ... LIBINT
 Integral threshhold            Thresh   ...  1.000e-10
 Primitive cut-off              TCut     ...  1.000e-11


------------------------------ INTEGRAL EVALUATION ----------------------------


 * One electron integrals 
 Pre-screening matrix                    ... done
 Shell pair data                         ... done (   0.003 sec)



           ************************************************************
           *        Program running with 16 parallel MPI-processes    *
           *              working on a common directory               *
           ************************************************************
-------------------------------------------------------------------------------
                                 ORCA SCF
-------------------------------------------------------------------------------

------------
SCF SETTINGS
------------
Hamiltonian:
 Density Functional     Method          .... DFT(GTOs)
 Exchange Functional    Exchange        .... WB97X-D3
 Correlation Functional Correlation     .... WB97X-D3
 Gradients option       PostSCFGGA      .... off
 Hybrid DFT is turned on
   Fraction HF Exchange ScalHFX         ....  0.195728
   Scaling of DF-GGA-X  ScalDFX         ....  0.000000
   Scaling of DF-GGA-C  ScalDFC         ....  1.000000
   Scaling of DF-LDA-C  ScalLDAC        ....  1.000000
   Perturbative correction              ....  0.000000
   Density functional embedding theory  .... OFF
 Long-range corrected/Screened/Range-Separated Hybrid DFT is turned on
   Amount of maximum screened exact exchange              ....  0.804272
   Range separation parameter mu (erf(mu*r12)/r12)        ....  0.250000


General Settings:
 Integral files         IntName         .... config_4881
 Hartree-Fock type      HFTyp           .... RHF
 Total Charge           Charge          ....    0
 Multiplicity           Mult            ....    1
 Number of Electrons    NEL             ....  134
 Basis Dimension        Dim             ....  322
 Nuclear Repulsion      ENuc            ....   1277.9271853242 Eh

Convergence Acceleration:
 DIIS                   CNVDIIS         .... on
   Start iteration      DIISMaxIt       ....    12
   Startup error        DIISStart       ....  0.200000
   # of expansion vecs  DIISMaxEq       ....     5
   Bias factor          DIISBfac        ....   1.050
   Max. coefficient     DIISMaxC        ....  10.000
 Newton-Raphson         CNVNR           .... off
 SOSCF                  CNVSOSCF        .... on
   Start iteration      SOSCFMaxIt      ....   150
   Startup grad/error   SOSCFStart      ....  0.003300
 Level Shifting         CNVShift        .... on
   Level shift para.    LevelShift      ....    0.2500
   Turn off err/grad.   ShiftErr        ....    0.0010
 Zerner damping         CNVZerner       .... off
 Static damping         CNVDamp         .... on
   Fraction old density DampFac         ....    0.7000
   Max. Damping (<1)    DampMax         ....    0.9800
   Min. Damping (>=0)   DampMin         ....    0.0000
   Turn off err/grad.   DampErr         ....    0.1000
 Fernandez-Rico         CNVRico         .... off

SCF Procedure:
 Maximum # iterations   MaxIter         ....   125
 SCF integral mode      SCFMode         .... Direct
   Integral package                     .... LIBINT
 Reset frequency        DirectResetFreq ....    20
 Integral Threshold     Thresh          ....  1.000e-10 Eh
 Primitive CutOff       TCut            ....  1.000e-11 Eh

Convergence Tolerance:
 Convergence Check Mode ConvCheckMode   .... Total+1el-Energy
 Convergence forced     ConvForced      .... 0
 Energy Change          TolE            ....  1.000e-06 Eh
 1-El. energy change                    ....  1.000e-03 Eh
 Orbital Gradient       TolG            ....  5.000e-05
 Orbital Rotation angle TolX            ....  5.000e-05
 DIIS Error             TolErr          ....  1.000e-06


Diagonalization of the overlap matrix:
Smallest eigenvalue                        ... 5.857e-04
Time for diagonalization                   ...    0.015 sec
Threshold for overlap eigenvalues          ... 1.000e-08
Number of eigenvalues below threshold      ... 0
Time for construction of square roots      ...    0.021 sec
Total time needed                          ...    0.037 sec

-------------------
DFT GRID GENERATION
-------------------

General Integration Accuracy     IntAcc      ...  4.340
Radial Grid Type                 RadialGrid  ... Gauss-Chebyshev
Angular Grid (max. acc.)         AngularGrid ... Lebedev-110
Angular grid pruning method      GridPruning ... 3 (G Style)
Weight generation scheme         WeightScheme... Becke
Basis function cutoff            BFCut       ...    1.0000e-10
Integration weight cutoff        WCut        ...    1.0000e-14
Grids for H and He will be reduced by one unit

# of grid points (after initial pruning)     ...  41088 (   0.0 sec)
# of grid points (after weights+screening)   ...  37013 (   0.0 sec)
nearest neighbour list constructed           ...    0.0 sec
Grid point re-assignment to atoms done       ...    0.0 sec
Grid point division into batches done        ...    0.0 sec
Reduced shell lists constructed in    0.1 sec

Total number of grid points                  ...    37013
Total number of batches                      ...      595
Average number of points per batch           ...       62
Average number of grid points per atom       ...     1089
Average number of shells per batch           ...    73.15 (47.50%)
Average number of basis functions per batch  ...   144.85 (44.98%)
Average number of large shells per batch     ...    44.77 (61.20%)
Average number of large basis fcns per batch ...    92.82 (64.08%)
Maximum spatial batch extension              ...  16.34, 19.49, 16.47 au
Average spatial batch extension              ...   0.24,  0.24,  0.25 au

Time for grid setup =    0.197 sec

------------------------------
INITIAL GUESS: MODEL POTENTIAL
------------------------------
Loading Hartree-Fock densities                     ... done
Calculating cut-offs                               ... done
Setting up the integral package                    ... done
Initializing the effective Hamiltonian             ... done
Starting the Coulomb interaction                   ... done (   0.0 sec)
Reading the grid                                   ... done
Mapping shells                                     ... done
Starting the XC term evaluation                    ... done (   0.0 sec)
  promolecular density results
     # of electrons  =    133.992082758
     EX              =   -126.706123863
     EC              =     -4.615817506
     EX+EC           =   -131.321941369
Transforming the Hamiltonian                       ... done (   0.0 sec)
Diagonalizing the Hamiltonian                      ... done (   0.0 sec)
Back transforming the eigenvectors                 ... done (   0.0 sec)
Now organizing SCF variables                       ... done
                      ------------------
                      INITIAL GUESS DONE (   0.4 sec)
                      ------------------
--------------
SCF ITERATIONS
--------------
ITER       Energy         Delta-E        Max-DP      RMS-DP      [F,P]     Damp
               ***  Starting incremental Fock matrix formation  ***
  0  -1339.4172391553   0.000000000000 0.06699924  0.00157547  0.1674163 0.7000
  1  -1339.6029963421  -0.185757186757 0.04493828  0.00114733  0.1009893 0.7000
                               ***Turning on DIIS***
  2  -1339.6927065384  -0.089710196373 0.07831058  0.00215906  0.0523450 0.0000
  3  -1339.8283246700  -0.135618131591 0.04319533  0.00099963  0.0391773 0.0000
  4  -1339.8576207240  -0.029296053992 0.00709730  0.00019811  0.0069736 0.0000
                      *** Initiating the SOSCF procedure ***
                           *** Shutting down DIIS ***
                      *** Re-Reading the Fockian *** 
                      *** Removing any level shift *** 
ITER      Energy       Delta-E        Grad      Rot      Max-DP    RMS-DP
  5  -1339.85850733  -0.0008866035  0.001775  0.001775  0.002929  0.000099
               *** Restarting incremental Fock matrix formation ***
  6  -1339.85869054  -0.0001832094  0.001557  0.004259  0.002363  0.000062
  7  -1339.85875423  -0.0000636957  0.000847  0.005160  0.002611  0.000060
  8  -1339.85877127  -0.0000170336  0.000245  0.000585  0.000734  0.000019
  9  -1339.85877520  -0.0000039308  0.000141  0.000341  0.000240  0.000008
 10  -1339.85877550  -0.0000003049  0.000077  0.000198  0.000142  0.000003
                 **** Energy Check signals convergence ****
              ***Rediagonalizing the Fockian in SOSCF/NRSCF***

               *****************************************************
               *                     SUCCESS                       *
               *           SCF CONVERGED AFTER  11 CYCLES          *
               *****************************************************

Setting up the final grid:

General Integration Accuracy     IntAcc      ...  4.670
Radial Grid Type                 RadialGrid  ... Gauss-Chebyshev
Angular Grid (max. acc.)         AngularGrid ... Lebedev-302
Angular grid pruning method      GridPruning ... 3 (G Style)
Weight generation scheme         WeightScheme... Becke
Basis function cutoff            BFCut       ...    1.0000e-10
Integration weight cutoff        WCut        ...    1.0000e-14
Grids for H and He will be reduced by one unit

# of grid points (after initial pruning)     ... 161752 (   0.0 sec)
# of grid points (after weights+screening)   ... 142795 (   0.2 sec)
nearest neighbour list constructed           ...    0.0 sec
Grid point re-assignment to atoms done       ...    0.0 sec
Grid point division into batches done        ...    0.5 sec
Reduced shell lists constructed in    0.7 sec

Total number of grid points                  ...   142795
Total number of batches                      ...     2248
Average number of points per batch           ...       63
Average number of grid points per atom       ...     4200
Average number of shells per batch           ...    65.89 (42.78%)
Average number of basis functions per batch  ...   129.76 (40.30%)
Average number of large shells per batch     ...    40.05 (60.78%)
Average number of large basis fcns per batch ...    82.30 (63.43%)
Maximum spatial batch extension              ...  13.73, 15.05, 13.44 au
Average spatial batch extension              ...   0.15,  0.16,  0.16 au

Final grid set up in    1.0 sec
Final integration                            ... done (   0.4 sec)
Change in XC energy                          ...     0.006082628
Integrated number of electrons               ...   134.000010129
Previous integrated no of electrons          ...   133.997461492

----------------
TOTAL SCF ENERGY
----------------

Total Energy       :        -1339.85269312 Eh          -36459.24533 eV

Components:
Nuclear Repulsion  :         1277.92718532 Eh           34774.16660 eV
Electronic Energy  :        -2617.77987844 Eh          -71233.41193 eV
One Electron Energy:        -4372.53628521 Eh         -118982.76129 eV
Two Electron Energy:         1754.75640677 Eh           47749.34936 eV

Virial components:
Potential Energy   :        -2671.33335929 Eh          -72690.67623 eV
Kinetic Energy     :         1331.48066617 Eh           36231.43090 eV
Virial Ratio       :            2.00628776


DFT components:
N(Alpha)           :       67.000005064458 electrons
N(Beta)            :       67.000005064458 electrons
N(Total)           :      134.000010128917 electrons
E(XC)              :      -94.242111798191 Eh       
DFET-embed. en.    :        0.000000000000 Eh       

---------------
SCF CONVERGENCE
---------------

  Last Energy change         ...   -2.4220e-07  Tolerance :   1.0000e-06
  Last MAX-Density change    ...    2.6035e-05  Tolerance :   1.0000e-05
  Last RMS-Density change    ...    6.8186e-07  Tolerance :   1.0000e-06
  Last Orbital Gradient      ...    7.7817e-06  Tolerance :   5.0000e-05
  Last Orbital Rotation      ...    3.1527e-05  Tolerance :   5.0000e-05

             **** THE GBW FILE WAS UPDATED (config_4881.gbw) ****
             **** DENSITY FILE WAS UPDATED (config_4881.scfp) ****
             **** ENERGY FILE WAS UPDATED (config_4881.en.tmp) ****
             **** THE GBW FILE WAS UPDATED (config_4881.gbw) ****
             **** DENSITY FILE WAS UPDATED (config_4881.scfp) ****
----------------
ORBITAL ENERGIES
----------------

  NO   OCC          E(Eh)            E(eV) 
   0   2.0000     -88.966605     -2420.9044 
   1   2.0000     -88.959489     -2420.7108 
   2   2.0000     -10.328143      -281.0431 
   3   2.0000     -10.322774      -280.8970 
   4   2.0000     -10.318950      -280.7929 
   5   2.0000     -10.312582      -280.6196 
   6   2.0000     -10.305614      -280.4300 
   7   2.0000     -10.300676      -280.2956 
   8   2.0000     -10.294262      -280.1211 
   9   2.0000     -10.292797      -280.0812 
  10   2.0000     -10.292197      -280.0649 
  11   2.0000     -10.291541      -280.0471 
  12   2.0000     -10.291141      -280.0362 
  13   2.0000     -10.290831      -280.0277 
  14   2.0000     -10.288989      -279.9776 
  15   2.0000     -10.273979      -279.5692 
  16   2.0000      -8.080778      -219.8891 
  17   2.0000      -8.074895      -219.7291 
  18   2.0000      -6.039411      -164.3407 
  19   2.0000      -6.035411      -164.2319 
  20   2.0000      -6.033404      -164.1773 
  21   2.0000      -6.031378      -164.1221 
  22   2.0000      -6.029344      -164.0668 
  23   2.0000      -6.025577      -163.9643 
  24   2.0000      -1.005857       -27.3708 
  25   2.0000      -0.982384       -26.7320 
  26   2.0000      -0.913946       -24.8697 
  27   2.0000      -0.905442       -24.6383 
  28   2.0000      -0.870897       -23.6983 
  29   2.0000      -0.849989       -23.1294 
  30   2.0000      -0.842347       -22.9214 
  31   2.0000      -0.813144       -22.1268 
  32   2.0000      -0.787767       -21.4362 
  33   2.0000      -0.772939       -21.0327 
  34   2.0000      -0.712305       -19.3828 
  35   2.0000      -0.699909       -19.0455 
  36   2.0000      -0.691796       -18.8247 
  37   2.0000      -0.659131       -17.9359 
  38   2.0000      -0.643401       -17.5078 
  39   2.0000      -0.619509       -16.8577 
  40   2.0000      -0.597610       -16.2618 
  41   2.0000      -0.569485       -15.4965 
  42   2.0000      -0.557788       -15.1782 
  43   2.0000      -0.554076       -15.0772 
  44   2.0000      -0.538613       -14.6564 
  45   2.0000      -0.525915       -14.3109 
  46   2.0000      -0.518623       -14.1124 
  47   2.0000      -0.513243       -13.9660 
  48   2.0000      -0.503448       -13.6995 
  49   2.0000      -0.497042       -13.5252 
  50   2.0000      -0.489065       -13.3081 
  51   2.0000      -0.482061       -13.1176 
  52   2.0000      -0.479729       -13.0541 
  53   2.0000      -0.466989       -12.7074 
  54   2.0000      -0.458613       -12.4795 
  55   2.0000      -0.444056       -12.0834 
  56   2.0000      -0.440876       -11.9969 
  57   2.0000      -0.439669       -11.9640 
  58   2.0000      -0.432758       -11.7759 
  59   2.0000      -0.426223       -11.5981 
  60   2.0000      -0.422623       -11.5002 
  61   2.0000      -0.405545       -11.0355 
  62   2.0000      -0.400393       -10.8952 
  63   2.0000      -0.341569        -9.2946 
  64   2.0000      -0.333335        -9.0705 
  65   2.0000      -0.326853        -8.8941 
  66   2.0000      -0.301187        -8.1957 
  67   0.0000       0.038796         1.0557 
  68   0.0000       0.063823         1.7367 
  69   0.0000       0.115604         3.1457 
  70   0.0000       0.121402         3.3035 
  71   0.0000       0.128153         3.4872 
  72   0.0000       0.131183         3.5697 
  73   0.0000       0.151168         4.1135 
  74   0.0000       0.155140         4.2216 
  75   0.0000       0.157895         4.2965 
  76   0.0000       0.160727         4.3736 
  77   0.0000       0.175886         4.7861 
  78   0.0000       0.186264         5.0685 
  79   0.0000       0.192807         5.2465 
  80   0.0000       0.198201         5.3933 
  81   0.0000       0.200102         5.4450 
  82   0.0000       0.208791         5.6815 
  83   0.0000       0.216218         5.8836 
  84   0.0000       0.221637         6.0310 
  85   0.0000       0.224451         6.1076 
  86   0.0000       0.232512         6.3270 
  87   0.0000       0.237605         6.4656 
  88   0.0000       0.243113         6.6154 
  89   0.0000       0.246683         6.7126 
  90   0.0000       0.254336         6.9208 
  91   0.0000       0.261414         7.1134 
  92   0.0000       0.272554         7.4166 
  93   0.0000       0.301171         8.1953 
  94   0.0000       0.320791         8.7292 
  95   0.0000       0.327994         8.9252 
  96   0.0000       0.335315         9.1244 
  97   0.0000       0.347012         9.4427 
  98   0.0000       0.354870         9.6565 
  99   0.0000       0.367517        10.0007 
 100   0.0000       0.380687        10.3590 
 101   0.0000       0.397949        10.8287 
 102   0.0000       0.417372        11.3573 
 103   0.0000       0.424222        11.5437 
 104   0.0000       0.429855        11.6970 
 105   0.0000       0.449323        12.2267 
 106   0.0000       0.470892        12.8136 
 107   0.0000       0.474336        12.9073 
 108   0.0000       0.492603        13.4044 
 109   0.0000       0.499930        13.6038 
 110   0.0000       0.504903        13.7391 
 111   0.0000       0.509770        13.8715 
 112   0.0000       0.521080        14.1793 
 113   0.0000       0.526017        14.3137 
 114   0.0000       0.534178        14.5357 
 115   0.0000       0.540729        14.7140 
 116   0.0000       0.544886        14.8271 
 117   0.0000       0.557503        15.1704 
 118   0.0000       0.565730        15.3943 
 119   0.0000       0.571594        15.5539 
 120   0.0000       0.586842        15.9688 
 121   0.0000       0.596163        16.2224 
 122   0.0000       0.603248        16.4152 
 123   0.0000       0.612416        16.6647 
 124   0.0000       0.622482        16.9386 
 125   0.0000       0.626616        17.0511 
 126   0.0000       0.634886        17.2761 
 127   0.0000       0.639385        17.3986 
 128   0.0000       0.642114        17.4728 
 129   0.0000       0.650717        17.7069 
 130   0.0000       0.657299        17.8860 
 131   0.0000       0.664558        18.0836 
 132   0.0000       0.674540        18.3552 
 133   0.0000       0.699293        19.0287 
 134   0.0000       0.715436        19.4680 
 135   0.0000       0.718021        19.5384 
 136   0.0000       0.720880        19.6161 
 137   0.0000       0.729834        19.8598 
 138   0.0000       0.735413        20.0116 
 139   0.0000       0.737478        20.0678 
 140   0.0000       0.738912        20.1068 
 141   0.0000       0.744323        20.2541 
 142   0.0000       0.751224        20.4419 
 143   0.0000       0.752481        20.4760 
 144   0.0000       0.759999        20.6806 
 145   0.0000       0.762061        20.7367 
 146   0.0000       0.769945        20.9513 
 147   0.0000       0.772105        21.0100 
 148   0.0000       0.774236        21.0680 
 149   0.0000       0.778495        21.1839 
 150   0.0000       0.783441        21.3185 
 151   0.0000       0.784924        21.3589 
 152   0.0000       0.792819        21.5737 
 153   0.0000       0.797941        21.7131 
 154   0.0000       0.800878        21.7930 
 155   0.0000       0.806720        21.9520 
 156   0.0000       0.810076        22.0433 
 157   0.0000       0.815478        22.1903 
 158   0.0000       0.817946        22.2574 
 159   0.0000       0.827876        22.5277 
 160   0.0000       0.832175        22.6446 
 161   0.0000       0.836224        22.7548 
 162   0.0000       0.839035        22.8313 
 163   0.0000       0.844298        22.9745 
 164   0.0000       0.852334        23.1932 
 165   0.0000       0.860434        23.4136 
 166   0.0000       0.873480        23.7686 
 167   0.0000       0.882759        24.0211 
 168   0.0000       0.890293        24.2261 
 169   0.0000       0.898416        24.4471 
 170   0.0000       0.902000        24.5447 
 171   0.0000       0.918497        24.9936 
 172   0.0000       0.926561        25.2130 
 173   0.0000       0.935449        25.4549 
 174   0.0000       0.945256        25.7217 
 175   0.0000       0.955646        26.0045 
 176   0.0000       0.978339        26.6220 
 177   0.0000       0.987762        26.8784 
 178   0.0000       1.003454        27.3054 
 179   0.0000       1.033590        28.1254 
 180   0.0000       1.051257        28.6062 
 181   0.0000       1.054011        28.6811 
 182   0.0000       1.075668        29.2704 
 183   0.0000       1.101879        29.9836 
 184   0.0000       1.110064        30.2064 
 185   0.0000       1.126612        30.6567 
 186   0.0000       1.157720        31.5032 
 187   0.0000       1.162266        31.6269 
 188   0.0000       1.172380        31.9021 
 189   0.0000       1.183765        32.2119 
 190   0.0000       1.220937        33.2234 
 191   0.0000       1.233629        33.5687 
 192   0.0000       1.236197        33.6386 
 193   0.0000       1.260839        34.3092 
 194   0.0000       1.271359        34.5954 
 195   0.0000       1.281788        34.8792 
 196   0.0000       1.312595        35.7175 
 197   0.0000       1.336621        36.3713 
 198   0.0000       1.340288        36.4711 
 199   0.0000       1.375922        37.4407 
 200   0.0000       1.399361        38.0785 
 201   0.0000       1.406684        38.2778 
 202   0.0000       1.428872        38.8816 
 203   0.0000       1.431405        38.9505 
 204   0.0000       1.447410        39.3860 
 205   0.0000       1.454468        39.5781 
 206   0.0000       1.474875        40.1334 
 207   0.0000       1.503036        40.8997 
 208   0.0000       1.520395        41.3720 
 209   0.0000       1.545099        42.0443 
 210   0.0000       1.569320        42.7034 
 211   0.0000       1.616886        43.9977 
 212   0.0000       1.624619        44.2081 
 213   0.0000       1.630945        44.3803 
 214   0.0000       1.638535        44.5868 
 215   0.0000       1.656561        45.0773 
 216   0.0000       1.672000        45.4974 
 217   0.0000       1.702946        46.3395 
 218   0.0000       1.740942        47.3734 
 219   0.0000       1.754677        47.7472 
 220   0.0000       1.772051        48.2199 
 221   0.0000       1.795834        48.8671 
 222   0.0000       1.812802        49.3288 
 223   0.0000       1.817298        49.4512 
 224   0.0000       1.828906        49.7671 
 225   0.0000       1.836630        49.9772 
 226   0.0000       1.845983        50.2318 
 227   0.0000       1.848273        50.2941 
 228   0.0000       1.858990        50.5857 
 229   0.0000       1.865622        50.7662 
 230   0.0000       1.878086        51.1053 
 231   0.0000       1.881401        51.1955 
 232   0.0000       1.890349        51.4390 
 233   0.0000       1.896503        51.6065 
 234   0.0000       1.907270        51.8995 
 235   0.0000       1.910991        52.0007 
 236   0.0000       1.920726        52.2656 
 237   0.0000       1.926095        52.4117 
 238   0.0000       1.932925        52.5976 
 239   0.0000       1.938838        52.7585 
 240   0.0000       1.952742        53.1368 
 241   0.0000       1.956022        53.2261 
 242   0.0000       1.963112        53.4190 
 243   0.0000       1.977999        53.8241 
 244   0.0000       1.978930        53.8494 
 245   0.0000       1.990001        54.1507 
 246   0.0000       1.996908        54.3386 
 247   0.0000       2.009288        54.6755 
 248   0.0000       2.014586        54.8197 
 249   0.0000       2.032459        55.3060 
 250   0.0000       2.038312        55.4653 
 251   0.0000       2.055111        55.9224 
 252   0.0000       2.069638        56.3177 
 253   0.0000       2.070953        56.3535 
 254   0.0000       2.088224        56.8235 
 255   0.0000       2.100661        57.1619 
 256   0.0000       2.109806        57.4107 
 257   0.0000       2.126050        57.8528 
 258   0.0000       2.142013        58.2871 
 259   0.0000       2.169822        59.0439 
 260   0.0000       2.180951        59.3467 
 261   0.0000       2.192928        59.6726 
 262   0.0000       2.200751        59.8855 
 263   0.0000       2.212371        60.2017 
 264   0.0000       2.218224        60.3610 
 265   0.0000       2.247808        61.1660 
 266   0.0000       2.260442        61.5098 
 267   0.0000       2.286234        62.2116 
 268   0.0000       2.304101        62.6978 
 269   0.0000       2.310187        62.8634 
 270   0.0000       2.328103        63.3509 
 271   0.0000       2.339416        63.6587 
 272   0.0000       2.372577        64.5611 
 273   0.0000       2.394382        65.1545 
 274   0.0000       2.407143        65.5017 
 275   0.0000       2.423041        65.9343 
 276   0.0000       2.432547        66.1930 
 277   0.0000       2.450823        66.6903 
 278   0.0000       2.453846        66.7725 
 279   0.0000       2.464875        67.0727 
 280   0.0000       2.493192        67.8432 
 281   0.0000       2.508621        68.2630 
 282   0.0000       2.513856        68.4055 
 283   0.0000       2.537634        69.0525 
 284   0.0000       2.538164        69.0670 
 285   0.0000       2.546005        69.2803 
 286   0.0000       2.549811        69.3839 
 287   0.0000       2.571662        69.9785 
 288   0.0000       2.590143        70.4814 
 289   0.0000       2.596498        70.6543 
 290   0.0000       2.626071        71.4590 
 291   0.0000       2.637503        71.7701 
 292   0.0000       2.667578        72.5885 
 293   0.0000       2.677895        72.8692 
 294   0.0000       2.712067        73.7991 
 295   0.0000       2.723666        74.1147 
 296   0.0000       2.740838        74.5820 
 297   0.0000       2.768241        75.3277 
 298   0.0000       2.798818        76.1597 
 299   0.0000       2.812291        76.5263 
 300   0.0000       2.840813        77.3025 
 301   0.0000       2.853041        77.6352 
 302   0.0000       2.903780        79.0159 
 303   0.0000       2.905926        79.0743 
 304   0.0000       2.936335        79.9017 
 305   0.0000       2.971805        80.8669 
 306   0.0000       2.996227        81.5315 
 307   0.0000       3.006348        81.8069 
 308   0.0000       3.021431        82.2173 
 309   0.0000       3.053152        83.0805 
 310   0.0000       3.076353        83.7118 
 311   0.0000       3.098134        84.3045 
 312   0.0000       3.107469        84.5585 
 313   0.0000       3.124695        85.0273 
 314   0.0000       3.142912        85.5230 
 315   0.0000       3.151021        85.7436 
 316   0.0000       3.168620        86.2225 
 317   0.0000       3.180219        86.5382 
 318   0.0000       3.215703        87.5037 
 319   0.0000       3.235400        88.0397 
 320   0.0000       3.374620        91.8281 
 321   0.0000       3.448288        93.8327 

                    ********************************
                    * MULLIKEN POPULATION ANALYSIS *
                    ********************************

-----------------------
MULLIKEN ATOMIC CHARGES
-----------------------
   0 S :    0.105520
   1 C :   -0.127037
   2 C :   -0.107398
   3 C :    0.051130
   4 C :   -0.152704
   5 H :   -0.005757
   6 C :    0.086165
   7 H :    0.038326
   8 H :   -0.001777
   9 C :   -0.068863
  10 H :    0.037998
  11 H :    0.031354
  12 C :   -0.100886
  13 H :    0.039618
  14 H :    0.046605
  15 H :    0.050151
  16 S :    0.095507
  17 C :   -0.080469
  18 C :   -0.050863
  19 C :   -0.033947
  20 C :   -0.166780
  21 H :    0.022711
  22 C :    0.091130
  23 H :    0.025825
  24 H :    0.016771
  25 C :   -0.078855
  26 H :    0.028545
  27 H :    0.038679
  28 C :   -0.035333
  29 H :    0.022648
  30 H :    0.030337
  31 H :    0.035838
  32 H :    0.059019
  33 H :    0.056788
Sum of atomic charges:   -0.0000000

--------------------------------
MULLIKEN REDUCED ORBITAL CHARGES
--------------------------------
  0 S s       :     5.849759  s :     5.849759
      pz      :     3.428135  p :     9.944166
      px      :     3.217436
      py      :     3.298595
      dz2     :     0.018368  d :     0.100555
      dxz     :     0.014538
      dyz     :     0.021612
      dx2y2   :     0.028064
      dxy     :     0.017973
  1 C s       :     3.182925  s :     3.182925
      pz      :     0.979467  p :     2.911297
      px      :     1.015710
      py      :     0.916120
      dz2     :     0.007054  d :     0.032814
      dxz     :     0.005097
      dyz     :     0.005977
      dx2y2   :     0.006671
      dxy     :     0.008015
  2 C s       :     3.094272  s :     3.094272
      pz      :     0.983166  p :     2.969991
      px      :     0.976952
      py      :     1.009873
      dz2     :     0.006500  d :     0.043135
      dxz     :     0.009819
      dyz     :     0.006969
      dx2y2   :     0.009924
      dxy     :     0.009923
  3 C s       :     3.191952  s :     3.191952
      pz      :     0.938141  p :     2.722767
      px      :     0.842641
      py      :     0.941985
      dz2     :     0.008093  d :     0.034151
      dxz     :     0.006455
      dyz     :     0.005657
      dx2y2   :     0.006645
      dxy     :     0.007301
  4 C s       :     3.067545  s :     3.067545
      pz      :     1.049227  p :     3.039496
      px      :     0.946646
      py      :     1.043623
      dz2     :     0.011020  d :     0.045663
      dxz     :     0.007839
      dyz     :     0.007584
      dx2y2   :     0.009300
      dxy     :     0.009920
  5 H s       :     0.980580  s :     0.980580
      pz      :     0.005005  p :     0.025177
      px      :     0.014766
      py      :     0.005405
  6 C s       :     2.931722  s :     2.931722
      pz      :     0.974934  p :     2.945553
      px      :     0.973577
      py      :     0.997043
      dz2     :     0.006992  d :     0.036559
      dxz     :     0.007869
      dyz     :     0.008533
      dx2y2   :     0.002903
      dxy     :     0.010261
  7 H s       :     0.937676  s :     0.937676
      pz      :     0.006512  p :     0.023998
      px      :     0.009394
      py      :     0.008092
  8 H s       :     0.977003  s :     0.977003
      pz      :     0.004742  p :     0.024774
      px      :     0.011181
      py      :     0.008851
  9 C s       :     3.055191  s :     3.055191
      pz      :     0.954260  p :     2.978088
      px      :     1.016032
      py      :     1.007797
      dz2     :     0.009372  d :     0.035583
      dxz     :     0.006448
      dyz     :     0.006495
      dx2y2   :     0.009100
      dxy     :     0.004167
 10 H s       :     0.939642  s :     0.939642
      pz      :     0.003183  p :     0.022360
      px      :     0.013731
      py      :     0.005447
 11 H s       :     0.945788  s :     0.945788
      pz      :     0.003788  p :     0.022857
      px      :     0.006238
      py      :     0.012831
 12 C s       :     3.075488  s :     3.075488
      pz      :     0.984782  p :     2.998579
      px      :     1.023983
      py      :     0.989813
      dz2     :     0.008283  d :     0.026819
      dxz     :     0.002101
      dyz     :     0.005945
      dx2y2   :     0.005346
      dxy     :     0.005145
 13 H s       :     0.937658  s :     0.937658
      pz      :     0.003984  p :     0.022724
      px      :     0.012941
      py      :     0.005800
 14 H s       :     0.933019  s :     0.933019
      pz      :     0.003328  p :     0.020376
      px      :     0.006742
      py      :     0.010306
 15 H s       :     0.927948  s :     0.927948
      pz      :     0.011436  p :     0.021901
      px      :     0.004991
      py      :     0.005475
 16 S s       :     5.845363  s :     5.845363
      pz      :     3.482939  p :     9.952964
      px      :     3.445298
      py      :     3.024727
      dz2     :     0.018468  d :     0.106166
      dxz     :     0.019177
      dyz     :     0.019388
      dx2y2   :     0.022240
      dxy     :     0.026894
 17 C s       :     3.138896  s :     3.138896
      pz      :     0.992435  p :     2.905007
      px      :     0.973545
      py      :     0.939027
      dz2     :     0.006765  d :     0.036566
      dxz     :     0.006407
      dyz     :     0.005684
      dx2y2   :     0.010457
      dxy     :     0.007253
 18 C s       :     3.189580  s :     3.189580
      pz      :     0.958767  p :     2.826513
      px      :     0.935383
      py      :     0.932363
      dz2     :     0.004112  d :     0.034769
      dxz     :     0.004942
      dyz     :     0.008312
      dx2y2   :     0.008168
      dxy     :     0.009236
 19 C s       :     3.046547  s :     3.046547
      pz      :     0.991624  p :     2.942940
      px      :     0.964412
      py      :     0.986904
      dz2     :     0.007984  d :     0.044460
      dxz     :     0.006398
      dyz     :     0.008061
      dx2y2   :     0.012875
      dxy     :     0.009141
 20 C s       :     3.078385  s :     3.078385
      pz      :     1.091261  p :     3.043635
      px      :     1.062042
      py      :     0.890332
      dz2     :     0.008781  d :     0.044760
      dxz     :     0.006909
      dyz     :     0.007812
      dx2y2   :     0.011142
      dxy     :     0.010116
 21 H s       :     0.954270  s :     0.954270
      pz      :     0.009300  p :     0.023019
      px      :     0.010124
      py      :     0.003594
 22 C s       :     2.940773  s :     2.940773
      pz      :     1.016121  p :     2.933625
      px      :     0.949713
      py      :     0.967791
      dz2     :     0.009990  d :     0.034472
      dxz     :     0.004982
      dyz     :     0.003827
      dx2y2   :     0.004740
      dxy     :     0.010932
 23 H s       :     0.949039  s :     0.949039
      pz      :     0.014926  p :     0.025136
      px      :     0.004413
      py      :     0.005797
 24 H s       :     0.958713  s :     0.958713
      pz      :     0.006552  p :     0.024515
      px      :     0.007949
      py      :     0.010015
 25 C s       :     3.058820  s :     3.058820
      pz      :     0.998494  p :     2.984455
      px      :     0.954558
      py      :     1.031403
      dz2     :     0.007986  d :     0.035580
      dxz     :     0.006387
      dyz     :     0.005880
      dx2y2   :     0.006918
      dxy     :     0.008410
 26 H s       :     0.948511  s :     0.948511
      pz      :     0.006820  p :     0.022945
      px      :     0.006520
      py      :     0.009605
 27 H s       :     0.938861  s :     0.938861
      pz      :     0.013757  p :     0.022460
      px      :     0.003472
      py      :     0.005231
 28 C s       :     2.987342  s :     2.987342
      pz      :     1.018608  p :     3.018471
      px      :     0.983647
      py      :     1.016216
      dz2     :     0.007223  d :     0.029520
      dxz     :     0.003352
      dyz     :     0.005227
      dx2y2   :     0.007915
      dxy     :     0.005804
 29 H s       :     0.952927  s :     0.952927
      pz      :     0.014173  p :     0.024424
      px      :     0.005303
      py      :     0.004949
 30 H s       :     0.946170  s :     0.946170
      pz      :     0.006236  p :     0.023493
      px      :     0.012343
      py      :     0.004914
 31 H s       :     0.939047  s :     0.939047
      pz      :     0.007403  p :     0.025115
      px      :     0.005935
      py      :     0.011776
 32 H s       :     0.917299  s :     0.917299
      pz      :     0.004219  p :     0.023683
      px      :     0.007700
      py      :     0.011764
 33 H s       :     0.919539  s :     0.919539
      pz      :     0.004984  p :     0.023673
      px      :     0.003817
      py      :     0.014873


                     *******************************
                     * LOEWDIN POPULATION ANALYSIS *
                     *******************************

----------------------
LOEWDIN ATOMIC CHARGES
----------------------
   0 S :    0.386659
   1 C :   -0.188894
   2 C :   -0.057696
   3 C :   -0.054864
   4 C :   -0.193419
   5 H :    0.023089
   6 C :   -0.034603
   7 H :    0.034638
   8 H :    0.026302
   9 C :   -0.055716
  10 H :    0.028995
  11 H :    0.028973
  12 C :   -0.078036
  13 H :    0.029135
  14 H :    0.036239
  15 H :    0.031838
  16 S :    0.394897
  17 C :   -0.191839
  18 C :   -0.080273
  19 C :   -0.055133
  20 C :   -0.185360
  21 H :    0.032910
  22 C :   -0.024993
  23 H :    0.028159
  24 H :    0.032988
  25 C :   -0.035519
  26 H :    0.031477
  27 H :    0.022954
  28 C :   -0.065037
  29 H :    0.022427
  30 H :    0.029779
  31 H :    0.018636
  32 H :    0.030451
  33 H :    0.030836

-------------------------------
LOEWDIN REDUCED ORBITAL CHARGES
-------------------------------
  0 S s       :     5.522938  s :     5.522938
      pz      :     3.418122  p :     9.966608
      px      :     3.258817
      py      :     3.289669
      dz2     :     0.022077  d :     0.123794
      dxz     :     0.016417
      dyz     :     0.027260
      dx2y2   :     0.035475
      dxy     :     0.022566
  1 C s       :     2.940238  s :     2.940238
      pz      :     1.050444  p :     3.171521
      px      :     1.090585
      py      :     1.030492
      dz2     :     0.015747  d :     0.077135
      dxz     :     0.012289
      dyz     :     0.012717
      dx2y2   :     0.017247
      dxy     :     0.019134
  2 C s       :     2.869191  s :     2.869191
      pz      :     1.003285  p :     3.082414
      px      :     1.061238
      py      :     1.017891
      dz2     :     0.012927  d :     0.106092
      dxz     :     0.025844
      dyz     :     0.016355
      dx2y2   :     0.025898
      dxy     :     0.025068
  3 C s       :     2.862879  s :     2.862879
      pz      :     1.026754  p :     3.100945
      px      :     1.046164
      py      :     1.028026
      dz2     :     0.018838  d :     0.091040
      dxz     :     0.019183
      dyz     :     0.015794
      dx2y2   :     0.017985
      dxy     :     0.019241
  4 C s       :     2.903848  s :     2.903848
      pz      :     1.083893  p :     3.180594
      px      :     1.025017
      py      :     1.071684
      dz2     :     0.023787  d :     0.108976
      dxz     :     0.020135
      dyz     :     0.019176
      dx2y2   :     0.022373
      dxy     :     0.023506
  5 H s       :     0.902619  s :     0.902619
      pz      :     0.015908  p :     0.074292
      px      :     0.041243
      py      :     0.017141
  6 C s       :     2.815722  s :     2.815722
      pz      :     1.036533  p :     3.126827
      px      :     1.050267
      py      :     1.040027
      dz2     :     0.016708  d :     0.092055
      dxz     :     0.020488
      dyz     :     0.021449
      dx2y2   :     0.006112
      dxy     :     0.027297
  7 H s       :     0.895981  s :     0.895981
      pz      :     0.020372  p :     0.069382
      px      :     0.024695
      py      :     0.024315
  8 H s       :     0.901166  s :     0.901166
      pz      :     0.015211  p :     0.072532
      px      :     0.030864
      py      :     0.026457
  9 C s       :     2.837715  s :     2.837715
      pz      :     1.018203  p :     3.130967
      px      :     1.060580
      py      :     1.052184
      dz2     :     0.022303  d :     0.087033
      dxz     :     0.015486
      dyz     :     0.016638
      dx2y2   :     0.023557
      dxy     :     0.009049
 10 H s       :     0.905081  s :     0.905081
      pz      :     0.011931  p :     0.065924
      px      :     0.038435
      py      :     0.015558
 11 H s       :     0.906089  s :     0.906089
      pz      :     0.012501  p :     0.064939
      px      :     0.015725
      py      :     0.036713
 12 C s       :     2.862584  s :     2.862584
      pz      :     1.036801  p :     3.147750
      px      :     1.070606
      py      :     1.040343
      dz2     :     0.020923  d :     0.067702
      dxz     :     0.004586
      dyz     :     0.016119
      dx2y2   :     0.012649
      dxy     :     0.013424
 13 H s       :     0.907975  s :     0.907975
      pz      :     0.010929  p :     0.062890
      px      :     0.036617
      py      :     0.015344
 14 H s       :     0.908726  s :     0.908726
      pz      :     0.009093  p :     0.055035
      px      :     0.016554
      py      :     0.029387
 15 H s       :     0.905811  s :     0.905811
      pz      :     0.033928  p :     0.062352
      px      :     0.012557
      py      :     0.015867
 16 S s       :     5.508355  s :     5.508355
      pz      :     3.472661  p :     9.965778
      px      :     3.453601
      py      :     3.039516
      dz2     :     0.021607  d :     0.130970
      dxz     :     0.023832
      dyz     :     0.024175
      dx2y2   :     0.028448
      dxy     :     0.032909
 17 C s       :     2.923566  s :     2.923566
      pz      :     1.049551  p :     3.181385
      px      :     1.056021
      py      :     1.075813
      dz2     :     0.014775  d :     0.086889
      dxz     :     0.014674
      dyz     :     0.012733
      dx2y2   :     0.025128
      dxy     :     0.019578
 18 C s       :     2.872410  s :     2.872410
      pz      :     1.031689  p :     3.117187
      px      :     1.042863
      py      :     1.042634
      dz2     :     0.009196  d :     0.090676
      dxz     :     0.012487
      dyz     :     0.020977
      dx2y2   :     0.022394
      dxy     :     0.025622
 19 C s       :     2.857953  s :     2.857953
      pz      :     1.010872  p :     3.087044
      px      :     1.034376
      py      :     1.041796
      dz2     :     0.017012  d :     0.110137
      dxz     :     0.016505
      dyz     :     0.019644
      dx2y2   :     0.032352
      dxy     :     0.024624
 20 C s       :     2.900597  s :     2.900597
      pz      :     1.094673  p :     3.176082
      px      :     1.093611
      py      :     0.987798
      dz2     :     0.018540  d :     0.108681
      dxz     :     0.017345
      dyz     :     0.019273
      dx2y2   :     0.026989
      dxy     :     0.026534
 21 H s       :     0.899541  s :     0.899541
      pz      :     0.026795  p :     0.067550
      px      :     0.028693
      py      :     0.012062
 22 C s       :     2.823871  s :     2.823871
      pz      :     1.072665  p :     3.116409
      px      :     1.015229
      py      :     1.028515
      dz2     :     0.024690  d :     0.084713
      dxz     :     0.012701
      dyz     :     0.009041
      dx2y2   :     0.012327
      dxy     :     0.025953
 23 H s       :     0.896131  s :     0.896131
      pz      :     0.042424  p :     0.075710
      px      :     0.015428
      py      :     0.017857
 24 H s       :     0.894698  s :     0.894698
      pz      :     0.017641  p :     0.072314
      px      :     0.025003
      py      :     0.029670
 25 C s       :     2.840910  s :     2.840910
      pz      :     1.049269  p :     3.109230
      px      :     1.005782
      py      :     1.054180
      dz2     :     0.020201  d :     0.085379
      dxz     :     0.015441
      dyz     :     0.013845
      dx2y2   :     0.015517
      dxy     :     0.020375
 26 H s       :     0.903123  s :     0.903123
      pz      :     0.018601  p :     0.065400
      px      :     0.018925
      py      :     0.027874
 27 H s       :     0.908150  s :     0.908150
      pz      :     0.039780  p :     0.068897
      px      :     0.012763
      py      :     0.016355
 28 C s       :     2.822482  s :     2.822482
      pz      :     1.072333  p :     3.167291
      px      :     1.038458
      py      :     1.056500
      dz2     :     0.019328  d :     0.075264
      dxz     :     0.008111
      dyz     :     0.012887
      dx2y2   :     0.018370
      dxy     :     0.016568
 29 H s       :     0.908630  s :     0.908630
      pz      :     0.039065  p :     0.068943
      px      :     0.014856
      py      :     0.015023
 30 H s       :     0.906458  s :     0.906458
      pz      :     0.015473  p :     0.063763
      px      :     0.033996
      py      :     0.014294
 31 H s       :     0.909105  s :     0.909105
      pz      :     0.020448  p :     0.072259
      px      :     0.017230
      py      :     0.034581
 32 H s       :     0.894887  s :     0.894887
      pz      :     0.014591  p :     0.074662
      px      :     0.023132
      py      :     0.036939
 33 H s       :     0.894918  s :     0.894918
      pz      :     0.017164  p :     0.074246
      px      :     0.014207
      py      :     0.042875


                      *****************************
                      * MAYER POPULATION ANALYSIS *
                      *****************************

  NA   - Mulliken gross atomic population
  ZA   - Total nuclear charge
  QA   - Mulliken gross atomic charge
  VA   - Mayer's total valence
  BVA  - Mayer's bonded valence
  FA   - Mayer's free valence

  ATOM       NA         ZA         QA         VA         BVA        FA
  0 S     15.8945    16.0000     0.1055     2.4488     2.4488    -0.0000
  1 C      6.1270     6.0000    -0.1270     3.8471     3.8471     0.0000
  2 C      6.1074     6.0000    -0.1074     4.0556     4.0556    -0.0000
  3 C      5.9489     6.0000     0.0511     3.9125     3.9125     0.0000
  4 C      6.1527     6.0000    -0.1527     3.8908     3.8908     0.0000
  5 H      1.0058     1.0000    -0.0058     1.0063     1.0063    -0.0000
  6 C      5.9138     6.0000     0.0862     3.9272     3.9272    -0.0000
  7 H      0.9617     1.0000     0.0383     0.9806     0.9806    -0.0000
  8 H      1.0018     1.0000    -0.0018     1.0075     1.0075    -0.0000
  9 C      6.0689     6.0000    -0.0689     4.0284     4.0284     0.0000
 10 H      0.9620     1.0000     0.0380     0.9764     0.9764    -0.0000
 11 H      0.9686     1.0000     0.0314     0.9842     0.9842     0.0000
 12 C      6.1009     6.0000    -0.1009     4.0014     4.0014    -0.0000
 13 H      0.9604     1.0000     0.0396     0.9855     0.9855    -0.0000
 14 H      0.9534     1.0000     0.0466     0.9793     0.9793    -0.0000
 15 H      0.9498     1.0000     0.0502     0.9845     0.9845    -0.0000
 16 S     15.9045    16.0000     0.0955     2.4659     2.4659    -0.0000
 17 C      6.0805     6.0000    -0.0805     3.8393     3.8393     0.0000
 18 C      6.0509     6.0000    -0.0509     3.9583     3.9583     0.0000
 19 C      6.0339     6.0000    -0.0339     4.0048     4.0048     0.0000
 20 C      6.1668     6.0000    -0.1668     3.9414     3.9414     0.0000
 21 H      0.9773     1.0000     0.0227     0.9978     0.9978    -0.0000
 22 C      5.9089     6.0000     0.0911     3.9552     3.9552     0.0000
 23 H      0.9742     1.0000     0.0258     0.9922     0.9922    -0.0000
 24 H      0.9832     1.0000     0.0168     0.9932     0.9932    -0.0000
 25 C      6.0789     6.0000    -0.0789     4.1004     4.1004     0.0000
 26 H      0.9715     1.0000     0.0285     0.9710     0.9710     0.0000
 27 H      0.9613     1.0000     0.0387     0.9876     0.9876     0.0000
 28 C      6.0353     6.0000    -0.0353     3.9917     3.9917    -0.0000
 29 H      0.9774     1.0000     0.0226     0.9910     0.9910    -0.0000
 30 H      0.9697     1.0000     0.0303     0.9861     0.9861    -0.0000
 31 H      0.9642     1.0000     0.0358     0.9960     0.9960     0.0000
 32 H      0.9410     1.0000     0.0590     1.0028     1.0028     0.0000
 33 H      0.9432     1.0000     0.0568     0.9948     0.9948    -0.0000

  Mayer bond orders larger than 0.100000
B(  0-S ,  1-C ) :   1.1205 B(  0-S ,  4-C ) :   1.1375 B(  1-C ,  2-C ) :   1.6499 
B(  1-C , 32-H ) :   0.9580 B(  2-C ,  3-C ) :   1.1981 B(  2-C ,  6-C ) :   1.0422 
B(  3-C ,  4-C ) :   1.6092 B(  3-C ,  5-H ) :   1.0027 B(  4-C , 20-C ) :   1.0045 
B(  6-C ,  7-H ) :   0.9320 B(  6-C ,  8-H ) :   0.9379 B(  6-C ,  9-C ) :   1.0352 
B(  9-C , 10-H ) :   0.9515 B(  9-C , 11-H ) :   0.9660 B(  9-C , 12-C ) :   1.0684 
B( 12-C , 13-H ) :   0.9781 B( 12-C , 14-H ) :   0.9748 B( 12-C , 15-H ) :   0.9756 
B( 16-S , 17-C ) :   1.1562 B( 16-S , 20-C ) :   1.1260 B( 17-C , 18-C ) :   1.6245 
B( 17-C , 33-H ) :   0.9670 B( 18-C , 19-C ) :   1.2041 B( 18-C , 21-H ) :   0.9893 
B( 19-C , 20-C ) :   1.6686 B( 19-C , 22-C ) :   1.0179 B( 22-C , 23-H ) :   0.9469 
B( 22-C , 24-H ) :   0.9257 B( 22-C , 25-C ) :   1.0637 B( 25-C , 26-H ) :   0.9547 
B( 25-C , 27-H ) :   0.9580 B( 25-C , 28-C ) :   1.0869 B( 28-C , 29-H ) :   0.9719 
B( 28-C , 30-H ) :   0.9705 B( 28-C , 31-H ) :   0.9714 

-------
TIMINGS
-------

Total SCF time: 0 days 0 hours 0 min 32 sec 

Total time                  ....      32.770 sec
Sum of individual times     ....      31.652 sec  ( 96.6%)

Fock matrix formation       ....      29.541 sec  ( 90.1%)
  XC integration            ....       1.799 sec  (  6.1% of F)
    Basis function eval.    ....       0.239 sec  ( 13.3% of XC)
    Density eval.           ....       0.174 sec  (  9.7% of XC)
    XC-Functional eval.     ....       0.195 sec  ( 10.8% of XC)
    XC-Potential eval.      ....       0.203 sec  ( 11.3% of XC)
Diagonalization             ....       0.148 sec  (  0.5%)
Density matrix formation    ....       0.040 sec  (  0.1%)
Population analysis         ....       0.182 sec  (  0.6%)
Initial guess               ....       0.206 sec  (  0.6%)
Orbital Transformation      ....       0.000 sec  (  0.0%)
Orbital Orthonormalization  ....       0.000 sec  (  0.0%)
DIIS solution               ....       0.148 sec  (  0.5%)
SOSCF solution              ....       0.161 sec  (  0.5%)
Grid generation             ....       1.226 sec  (  3.7%)


-------------------------------------------------------------------------------
                          DFT DISPERSION CORRECTION                            
                                                                               
                              DFTD3 V3.1  Rev 1                                
                              USING zero damping                               
-------------------------------------------------------------------------------
The omegaB97X-D3 functional is recognized. Fit by Chai et al.
Active option DFTDOPT                   ...         3   

molecular C6(AA) [au] = 14188.770357 


            DFT-D V3
 parameters
 s6 scaling factor         :     1.0000 
 rs6 scaling factor        :     1.2810 
 s8 scaling factor         :     1.0000 
 rs8 scaling factor        :     1.0940 
 Damping factor alpha6     :    14.0000 
 Damping factor alpha8     :    16.0000 
 ad hoc parameters k1-k3   :    16.0000     1.3333    -4.0000 

 Edisp/kcal,au: -9.147239780209  -0.014577052909 
 E6   /kcal   :  -4.173361460 
 E8   /kcal   :  -4.973878320 
 % E8         :  54.375729070 

-------------------------   ----------------
Dispersion correction           -0.014577053
-------------------------   ----------------


-------------------------   --------------------
FINAL SINGLE POINT ENERGY     -1339.867270169150
-------------------------   --------------------


                            ***************************************
                            *     ORCA property calculations      *
                            ***************************************

                                    ---------------------
                                    Active property flags
                                    ---------------------
   (+) Dipole Moment


------------------------------------------------------------------------------
                       ORCA ELECTRIC PROPERTIES CALCULATION
------------------------------------------------------------------------------

Dipole Moment Calculation                       ... on
Quadrupole Moment Calculation                   ... off
Polarizability Calculation                      ... off
GBWName                                         ... config_4881.gbw
Electron density file                           ... config_4881.scfp
The origin for moment calculation is the CENTER OF MASS  = (-3.210453, 17.250639 151.861783)

-------------
DIPOLE MOMENT
-------------
                                X             Y             Z
Electronic contribution:     21.27825      15.01438      11.54053
Nuclear contribution   :    -21.96562     -15.46172     -11.56526
                        -----------------------------------------
Total Dipole Moment    :     -0.68738      -0.44734      -0.02473
                        -----------------------------------------
Magnitude (a.u.)       :      0.82050
Magnitude (Debye)      :      2.08553



--------------------
Rotational spectrum 
--------------------
 
Rotational constants in cm-1:     0.018435     0.008427     0.006683 
Rotational constants in MHz :   552.680371   252.624490   200.337271 

 Dipole components along the rotational axes: 
x,y,z [a.u.] :    -0.132761     0.784996     0.198415 
x,y,z [Debye]:    -0.337452     1.995302     0.504330 

 

Timings for individual modules:

Sum of individual times         ...       33.923 sec (=   0.565 min)
GTO integral calculation        ...        0.800 sec (=   0.013 min)   2.4 %
SCF iterations                  ...       33.123 sec (=   0.552 min)  97.6 %
                             ****ORCA TERMINATED NORMALLY****
TOTAL RUN TIME: 0 days 0 hours 0 minutes 34 seconds 658 msec
