
                                 *****************
                                 * O   R   C   A *
                                 *****************

           --- An Ab Initio, DFT and Semiempirical electronic structure package ---

                  #######################################################
                  #                        -***-                        #
                  #          Department of theory and spectroscopy      #
                  #               Directorship: Frank Neese             #
                  #        Max Planck Institute fuer Kohlenforschung    #
                  #                Kaiser Wilhelm Platz 1               #
                  #                 D-45470 Muelheim/Ruhr               #
                  #                      Germany                        #
                  #                                                     #
                  #                  All rights reserved                #
                  #                        -***-                        #
                  #######################################################


                         Program Version 4.2.1 -  RELEASE  -


 With contributions from (in alphabetic order):
   Daniel Aravena         : Magnetic Suceptibility
   Michael Atanasov       : Ab Initio Ligand Field Theory (pilot matlab implementation)
   Alexander A. Auer      : GIAO ZORA, VPT2
   Ute Becker             : Parallelization
   Giovanni Bistoni       : ED, misc. LED, open-shell LED, HFLD
   Martin Brehm           : Molecular dynamics
   Dmytro Bykov           : SCF Hessian
   Vijay G. Chilkuri      : MRCI spin determinant printing, contributions to CSF-ICE
   Dipayan Datta          : RHF DLPNO-CCSD density
   Achintya Kumar Dutta   : EOM-CC, STEOM-CC
   Dmitry Ganyushin       : Spin-Orbit,Spin-Spin,Magnetic field MRCI
   Miquel Garcia          : C-PCM Hessian, Gaussian charge scheme
   Yang Guo               : DLPNO-NEVPT2, CIM, IAO-localization
   Andreas Hansen         : Spin unrestricted coupled pair/coupled cluster methods
   Benjamin Helmich-Paris : CASSCF linear response (MC-RPA)
   Lee Huntington         : MR-EOM, pCC
   Robert Izsak           : Overlap fitted RIJCOSX, COSX-SCS-MP3, EOM
   Christian Kollmar      : KDIIS, OOCD, Brueckner-CCSD(T), CCSD density
   Simone Kossmann        : Meta GGA functionals, TD-DFT gradient, OOMP2, MP2 Hessian
   Martin Krupicka        : AUTO-CI
   Lucas Lang             : DCDCAS
   Dagmar Lenk            : GEPOL surface, SMD
   Dimitrios Liakos       : Extrapolation schemes; Compound Job, initial MDCI parallelization
   Dimitrios Manganas     : Further ROCIS development; embedding schemes
   Dimitrios Pantazis     : SARC Basis sets
   Taras Petrenko         : DFT Hessian,TD-DFT gradient, ASA, ECA, R-Raman, ABS, FL, XAS/XES, NRVS
   Peter Pinski           : DLPNO-MP2, DLPNO-MP2 Gradient
   Christoph Reimann      : Effective Core Potentials
   Marius Retegan         : Local ZFS, SOC
   Christoph Riplinger    : Optimizer, TS searches, QM/MM, DLPNO-CCSD(T), (RO)-DLPNO pert. Triples
   Tobias Risthaus        : Range-separated hybrids, TD-DFT gradient, RPA, STAB
   Michael Roemelt        : Original ROCIS implementation
   Masaaki Saitow         : Open-shell DLPNO-CCSD energy and density
   Barbara Sandhoefer     : DKH picture change effects
   Avijit Sen             : IP-ROCIS
   Kantharuban Sivalingam : CASSCF convergence, NEVPT2, FIC-MRCI
   Bernardo de Souza      : ESD, SOC TD-DFT
   Georgi Stoychev        : AutoAux, RI-MP2 NMR
   Willem Van den Heuvel  : Paramagnetic NMR
   Boris Wezisla          : Elementary symmetry handling
   Frank Wennmohs         : Technical directorship


 We gratefully acknowledge several colleagues who have allowed us to
 interface, adapt or use parts of their codes:
   Stefan Grimme, W. Hujo, H. Kruse,             : VdW corrections, initial TS optimization,
                  C. Bannwarth                     DFT functionals, gCP, sTDA/sTD-DF
   Ed Valeev, F. Pavosevic, A. Kumar             : LibInt (2-el integral package), F12 methods
   Garnet Chan, S. Sharma, J. Yang, R. Olivares  : DMRG
   Ulf Ekstrom                                   : XCFun DFT Library
   Mihaly Kallay                                 : mrcc  (arbitrary order and MRCC methods)
   Andreas Klamt, Michael Diedenhofen            : otool_cosmo (COSMO solvation model)
   Jiri Pittner, Ondrej Demel                    : Mk-CCSD
   Frank Weinhold                                : gennbo (NPA and NBO analysis)
   Christopher J. Cramer and Donald G. Truhlar   : smd solvation model
   Lars Goerigk                                  : TD-DFT with DH, B97 family of functionals
   V. Asgeirsson, H. Jonsson                     : NEB implementation
   FAccTs GmbH                                   : IRC, NEB, NEB-TS, Multilevel, MM, QM/MM, CI optimization
   S Lehtola, MJT Oliveira, MAL Marques          : LibXC Library


 Your calculation uses the libint2 library for the computation of 2-el integrals
 For citations please refer to: http://libint.valeyev.net

 Your ORCA version has been built with support for libXC version: 4.2.3
 For citations please refer to: https://tddft.org/programs/libxc/

 This ORCA versions uses:
   CBLAS   interface :  Fast vector & matrix operations
   LAPACKE interface :  Fast linear algebra routines
   SCALAPACK package :  Parallel linear algebra routines


Your calculation utilizes the atom-pairwise dispersion correction
with the zero-damping scheme (D30)
Cite in your paper:
S.Grimme, J.Antony, S.Ehrlich and H.Krieg, J.Chem.Phys., 132, (2010), 154104 
   

XCFun DFT library Copyright 2009-2010 Ulf Ekstrom and contributors.
See http://admol.org/xcfun for more information. This is free soft-
ware; see the source code for copying conditions. There is ABSOLUTELY
NO WARRANTY; not even for MERCHANTABILITY or FITNESS FOR A PARTICULAR
PURPOSE. For details see the documentation. Scientific users of this 
library should cite U. Ekstrom, L. Visscher, R. Bast, A. J. Thorvald-
sen and K. Ruud; J.Chem.Theor.Comp. 2010, DOI: 10.1021/ct100117s
XCFun Version 0.99 
----- Orbital basis set information -----
Your calculation utilizes the basis: def2-SVP
   F. Weigend and R. Ahlrichs, Phys. Chem. Chem. Phys. 7, 3297 (2005).

================================================================================
                                        WARNINGS
                       Please study these warnings very carefully!
================================================================================


INFO   : the flag for use of LIBINT has been found!

================================================================================
                                       INPUT FILE
================================================================================
NAME = config_9159.inp
|  1> ! wB97X-D3 SP def2-SVP
|  2> %pal
|  3> nprocs 16
|  4> end
|  5> 
|  6> * xyz 0 1
|  7> S 	 -92.0744 	 60.3485 	 123.584 	 
|  8> C 	 -91.9744 	 59.484 	 122.136 	 
|  9> C 	 -91.4034 	 58.2439 	 122.337 	 
| 10> C 	 -90.9691 	 58.1231 	 123.733 	 
| 11> C 	 -91.1285 	 59.284 	 124.455 	 
| 12> H 	 -90.5094 	 57.2314 	 124.075 	 
| 13> C 	 -91.1648 	 57.1977 	 121.32 	 
| 14> H 	 -91.0418 	 56.2749 	 121.872 	 
| 15> H 	 -90.2538 	 57.581 	 120.829 	 
| 16> C 	 -92.2231 	 56.9913 	 120.311 	 
| 17> H 	 -93.1597 	 56.549 	 120.669 	 
| 18> H 	 -92.5322 	 57.9426 	 119.83 	 
| 19> C 	 -91.6044 	 56.1186 	 119.203 	 
| 20> H 	 -92.3386 	 55.8949 	 118.51 	 
| 21> H 	 -90.8147 	 56.5934 	 118.682 	 
| 22> H 	 -91.1011 	 55.2518 	 119.571 	 
| 23> S 	 -92.1231 	 59.7213 	 126.968 	 
| 24> C 	 -91.0239 	 59.5147 	 128.361 	 
| 25> C 	 -89.8299 	 59.1185 	 127.936 	 
| 26> C 	 -89.6732 	 59.0011 	 126.549 	 
| 27> C 	 -90.8387 	 59.3671 	 125.849 	 
| 28> H 	 -88.9917 	 58.9592 	 128.578 	 
| 29> C 	 -88.3307 	 58.7175 	 125.959 	 
| 30> H 	 -88.4653 	 58.7474 	 124.883 	 
| 31> H 	 -88.1304 	 57.6741 	 126.249 	 
| 32> C 	 -87.115 	 59.5878 	 126.364 	 
| 33> H 	 -87.0123 	 59.4889 	 127.435 	 
| 34> H 	 -87.4408 	 60.6092 	 126.221 	 
| 35> C 	 -85.7993 	 59.436 	 125.614 	 
| 36> H 	 -85.2803 	 58.4875 	 125.817 	 
| 37> H 	 -85.0802 	 60.2164 	 125.914 	 
| 38> H 	 -86.0842 	 59.7006 	 124.549 	 
| 39> H 	 -92.3257 	 59.7682 	 121.151 	 
| 40> H 	 -91.2282 	 59.7457 	 129.365 	 
| 41> *
| 42> 
| 43>                          ****END OF INPUT****
================================================================================

                       ****************************
                       * Single Point Calculation *
                       ****************************

---------------------------------
CARTESIAN COORDINATES (ANGSTROEM)
---------------------------------
  S    -92.074400   60.348500  123.584000
  C    -91.974400   59.484000  122.136000
  C    -91.403400   58.243900  122.337000
  C    -90.969100   58.123100  123.733000
  C    -91.128500   59.284000  124.455000
  H    -90.509400   57.231400  124.075000
  C    -91.164800   57.197700  121.320000
  H    -91.041800   56.274900  121.872000
  H    -90.253800   57.581000  120.829000
  C    -92.223100   56.991300  120.311000
  H    -93.159700   56.549000  120.669000
  H    -92.532200   57.942600  119.830000
  C    -91.604400   56.118600  119.203000
  H    -92.338600   55.894900  118.510000
  H    -90.814700   56.593400  118.682000
  H    -91.101100   55.251800  119.571000
  S    -92.123100   59.721300  126.968000
  C    -91.023900   59.514700  128.361000
  C    -89.829900   59.118500  127.936000
  C    -89.673200   59.001100  126.549000
  C    -90.838700   59.367100  125.849000
  H    -88.991700   58.959200  128.578000
  C    -88.330700   58.717500  125.959000
  H    -88.465300   58.747400  124.883000
  H    -88.130400   57.674100  126.249000
  C    -87.115000   59.587800  126.364000
  H    -87.012300   59.488900  127.435000
  H    -87.440800   60.609200  126.221000
  C    -85.799300   59.436000  125.614000
  H    -85.280300   58.487500  125.817000
  H    -85.080200   60.216400  125.914000
  H    -86.084200   59.700600  124.549000
  H    -92.325700   59.768200  121.151000
  H    -91.228200   59.745700  129.365000

----------------------------
CARTESIAN COORDINATES (A.U.)
----------------------------
  NO LB      ZA    FRAG     MASS         X           Y           Z
   0 S    16.0000    0    32.060  -173.995400  114.042138  233.539915
   1 C     6.0000    0    12.011  -173.806427  112.408469  230.803591
   2 C     6.0000    0    12.011  -172.727394  110.065020  231.183426
   3 C     6.0000    0    12.011  -171.906686  109.836741  233.821484
   4 C     6.0000    0    12.011  -172.207908  112.030524  235.185866
   5 H     1.0000    0     1.008  -171.037979  108.151672  234.467770
   6 C     6.0000    0    12.011  -172.276505  108.087988  229.261575
   7 H     1.0000    0     1.008  -172.044069  106.344149  230.304703
   8 H     1.0000    0     1.008  -170.554965  108.812321  228.333719
   9 C     6.0000    0    12.011  -174.276402  107.697949  227.354841
  10 H     1.0000    0     1.008  -176.046320  106.862123  228.031363
  11 H     1.0000    0     1.008  -174.860517  109.495645  226.445883
  12 C     6.0000    0    12.011  -173.107229  106.048785  225.261024
  13 H     1.0000    0     1.008  -174.494666  105.626053  223.951444
  14 H     1.0000    0     1.008  -171.614912  106.946027  224.276477
  15 H     1.0000    0     1.008  -172.156129  104.410770  225.956444
  16 S    16.0000    0    32.060  -174.087430  112.856901  239.934748
  17 C     6.0000    0    12.011  -172.010243  112.466484  242.567136
  18 C     6.0000    0    12.011  -169.753910  111.717774  241.764003
  19 C     6.0000    0    12.011  -169.457790  111.495921  239.142953
  20 C     6.0000    0    12.011  -171.660265  112.187560  237.820144
  21 H     1.0000    0     1.008  -168.169941  111.416741  242.977207
  22 C     6.0000    0    12.011  -166.920832  110.959994  238.028014
  23 H     1.0000    0     1.008  -167.175189  111.016497  235.994669
  24 H     1.0000    0     1.008  -166.542320  108.988254  238.576035
  25 C     6.0000    0    12.011  -164.623492  112.604623  238.793353
  26 H     1.0000    0     1.008  -164.429417  112.417729  240.817250
  27 H     1.0000    0     1.008  -165.239165  114.534789  238.523122
  28 C     6.0000    0    12.011  -162.137179  112.317762  237.376059
  29 H     1.0000    0     1.008  -161.156412  110.525357  237.759673
  30 H     1.0000    0     1.008  -160.778277  113.792505  237.942976
  31 H     1.0000    0     1.008  -162.675562  112.817784  235.363500
  32 H     1.0000    0     1.008  -174.470288  112.945530  228.942211
  33 H     1.0000    0     1.008  -172.396314  112.903011  244.464421

--------------------------------
INTERNAL COORDINATES (ANGSTROEM)
--------------------------------
 S      0   0   0     0.000000000000     0.00000000     0.00000000
 C      1   0   0     1.689397599738     0.00000000     0.00000000
 C      2   1   0     1.379960147975   111.06990364     0.00000000
 C      3   2   1     1.466978230922   109.57917449   355.47863891
 C      4   3   2     1.376365202263   113.29390763   354.93432372
 H      4   3   2     1.059913666296   120.31374651   179.70815519
 C      3   2   1     1.478429369297   127.04956642   179.10207897
 H      7   3   2     1.082309031654   105.71505192   199.47428094
 H      7   3   2     1.103594531520   101.15679392    78.81167787
 C      7   3   2     1.476712852927   116.95344675   319.82180666
 H     10   7   3     1.095907318162   116.46727005   290.47000024
 H     10   7   3     1.109898869267   112.07996382    50.64931890
 C     10   7   3     1.540149012271   106.43103093   166.82606240
 H     13  10   7     1.034089130588   108.63137395   175.92186073
 H     13  10   7     1.058537731968   113.55421832   295.17934302
 H     13  10   7     1.067743944024   113.66602817    49.25596433
 S      5   4   3     2.737814721635   131.16952317   135.41810474
 C     17   5   4     1.786441490786   118.27683549    83.79827138
 C     18  17   5     1.327868758575   109.76750958   358.09269383
 C     19  18  17     1.400752172941   116.26460001     2.28965624
 C     20  19  18     1.407958184748   112.20376432     1.42547963
 H     19  18  17     1.067763892441   123.91345711   177.80949561
 C     20  19  18     1.493598075119   120.50453085   172.87987105
 H     23  20  19     1.084798216260   105.96533968   183.99742925
 H     23  20  19     1.101319050049   103.84808926    70.26475787
 C     23  20  19     1.548991149103   119.70090550   308.87293457
 H     26  23  20     1.080448749363   106.40023164    59.04255237
 H     26  23  20     1.081597244819   105.04648926   308.87322520
 C     26  23  20     1.522041303645   119.57494670   189.06183390
 H     29  26  23     1.100101018089   113.75829481   289.42709889
 H     29  26  23     1.102782376537   111.04174729   171.73580929
 H     29  26  23     1.133757544628   102.84872835    60.19584660
 H      2   1   3     1.083700295285   128.73066007   177.28562330
 H     18  17   5     1.050293049582   126.88931354   172.83458667

---------------------------
INTERNAL COORDINATES (A.U.)
---------------------------
 S      0   0   0     0.000000000000     0.00000000     0.00000000
 C      1   0   0     3.192498794808     0.00000000     0.00000000
 C      2   1   0     2.607746755399   111.06990364     0.00000000
 C      3   2   1     2.772187100867   109.57917449   355.47863891
 C      4   3   2     2.600953292536   113.29390763   354.93432372
 H      4   3   2     2.002946554899   120.31374651   179.70815519
 C      3   2   1     2.793826616317   127.04956642   179.10207897
 H      7   3   2     2.045267662096   105.71505192   199.47428094
 H      7   3   2     2.085491427465   101.15679392    78.81167787
 C      7   3   2     2.790582870474   116.95344675   319.82180666
 H     10   7   3     2.070964699485   116.46727005   290.47000024
 H     10   7   3     2.097404899263   112.07996382    50.64931890
 C     10   7   3     2.910459838622   106.43103093   166.82606240
 H     13  10   7     1.954145254876   108.63137395   175.92186073
 H     13  10   7     2.000346415842   113.55421832   295.17934302
 H     13  10   7     2.017743635358   113.66602817    49.25596433
 S      5   4   3     5.173720029308   131.16952317   135.41810474
 C     17   5   4     3.375885171859   118.27683549    83.79827138
 C     18  17   5     2.509308295497   109.76750958   358.09269383
 C     19  18  17     2.647037988354   116.26460001     2.28965624
 C     20  19  18     2.660655377187   112.20376432     1.42547963
 H     19  18  17     2.017781332403   123.91345711   177.80949561
 C     20  19  18     2.822491316127   120.50453085   172.87987105
 H     23  20  19     2.049971539297   105.96533968   183.99742925
 H     23  20  19     2.081191390662   103.84808926    70.26475787
 C     23  20  19     2.927169055673   119.70090550   308.87293457
 H     26  23  20     2.041752238034   106.40023164    59.04255237
 H     26  23  20     2.043922579912   105.04648926   308.87322520
 C     26  23  20     2.876241228405   119.57494670   189.06183390
 H     29  26  23     2.078889643836   113.75829481   289.42709889
 H     29  26  23     2.083956676969   111.04174729   171.73580929
 H     29  26  23     2.142491261613   102.84872835    60.19584660
 H      2   1   3     2.047896769338   128.73066007   177.28562330
 H     18  17   5     1.984766224071   126.88931354   172.83458667

---------------------
BASIS SET INFORMATION
---------------------
There are 3 groups of distinct atoms

 Group   1 Type S   : 10s7p1d contracted to 4s3p1d pattern {5311/511/1}
 Group   2 Type C   : 7s4p1d contracted to 3s2p1d pattern {511/31/1}
 Group   3 Type H   : 4s1p contracted to 2s1p pattern {31/1}

Atom   0S    basis set group =>   1
Atom   1C    basis set group =>   2
Atom   2C    basis set group =>   2
Atom   3C    basis set group =>   2
Atom   4C    basis set group =>   2
Atom   5H    basis set group =>   3
Atom   6C    basis set group =>   2
Atom   7H    basis set group =>   3
Atom   8H    basis set group =>   3
Atom   9C    basis set group =>   2
Atom  10H    basis set group =>   3
Atom  11H    basis set group =>   3
Atom  12C    basis set group =>   2
Atom  13H    basis set group =>   3
Atom  14H    basis set group =>   3
Atom  15H    basis set group =>   3
Atom  16S    basis set group =>   1
Atom  17C    basis set group =>   2
Atom  18C    basis set group =>   2
Atom  19C    basis set group =>   2
Atom  20C    basis set group =>   2
Atom  21H    basis set group =>   3
Atom  22C    basis set group =>   2
Atom  23H    basis set group =>   3
Atom  24H    basis set group =>   3
Atom  25C    basis set group =>   2
Atom  26H    basis set group =>   3
Atom  27H    basis set group =>   3
Atom  28C    basis set group =>   2
Atom  29H    basis set group =>   3
Atom  30H    basis set group =>   3
Atom  31H    basis set group =>   3
Atom  32H    basis set group =>   3
Atom  33H    basis set group =>   3


           ************************************************************
           *        Program running with 16 parallel MPI-processes    *
           *              working on a common directory               *
           ************************************************************
------------------------------------------------------------------------------
                           ORCA GTO INTEGRAL CALCULATION
------------------------------------------------------------------------------

                         BASIS SET STATISTICS AND STARTUP INFO

 # of primitive gaussian shells          ...  294
 # of primitive gaussian functions       ...  534
 # of contracted shells                  ...  154
 # of contracted basis functions         ...  322
 Highest angular momentum                ...    2
 Maximum contraction depth               ...    5
 Integral package used                   ... LIBINT
 Integral threshhold            Thresh   ...  1.000e-10
 Primitive cut-off              TCut     ...  1.000e-11


------------------------------ INTEGRAL EVALUATION ----------------------------


 * One electron integrals 
 Pre-screening matrix                    ... done
 Shell pair data                         ... done (   0.003 sec)



           ************************************************************
           *        Program running with 16 parallel MPI-processes    *
           *              working on a common directory               *
           ************************************************************
-------------------------------------------------------------------------------
                                 ORCA SCF
-------------------------------------------------------------------------------

------------
SCF SETTINGS
------------
Hamiltonian:
 Density Functional     Method          .... DFT(GTOs)
 Exchange Functional    Exchange        .... WB97X-D3
 Correlation Functional Correlation     .... WB97X-D3
 Gradients option       PostSCFGGA      .... off
 Hybrid DFT is turned on
   Fraction HF Exchange ScalHFX         ....  0.195728
   Scaling of DF-GGA-X  ScalDFX         ....  0.000000
   Scaling of DF-GGA-C  ScalDFC         ....  1.000000
   Scaling of DF-LDA-C  ScalLDAC        ....  1.000000
   Perturbative correction              ....  0.000000
   Density functional embedding theory  .... OFF
 Long-range corrected/Screened/Range-Separated Hybrid DFT is turned on
   Amount of maximum screened exact exchange              ....  0.804272
   Range separation parameter mu (erf(mu*r12)/r12)        ....  0.250000


General Settings:
 Integral files         IntName         .... config_9159
 Hartree-Fock type      HFTyp           .... RHF
 Total Charge           Charge          ....    0
 Multiplicity           Mult            ....    1
 Number of Electrons    NEL             ....  134
 Basis Dimension        Dim             ....  322
 Nuclear Repulsion      ENuc            ....   1272.9801611438 Eh

Convergence Acceleration:
 DIIS                   CNVDIIS         .... on
   Start iteration      DIISMaxIt       ....    12
   Startup error        DIISStart       ....  0.200000
   # of expansion vecs  DIISMaxEq       ....     5
   Bias factor          DIISBfac        ....   1.050
   Max. coefficient     DIISMaxC        ....  10.000
 Newton-Raphson         CNVNR           .... off
 SOSCF                  CNVSOSCF        .... on
   Start iteration      SOSCFMaxIt      ....   150
   Startup grad/error   SOSCFStart      ....  0.003300
 Level Shifting         CNVShift        .... on
   Level shift para.    LevelShift      ....    0.2500
   Turn off err/grad.   ShiftErr        ....    0.0010
 Zerner damping         CNVZerner       .... off
 Static damping         CNVDamp         .... on
   Fraction old density DampFac         ....    0.7000
   Max. Damping (<1)    DampMax         ....    0.9800
   Min. Damping (>=0)   DampMin         ....    0.0000
   Turn off err/grad.   DampErr         ....    0.1000
 Fernandez-Rico         CNVRico         .... off

SCF Procedure:
 Maximum # iterations   MaxIter         ....   125
 SCF integral mode      SCFMode         .... Direct
   Integral package                     .... LIBINT
 Reset frequency        DirectResetFreq ....    20
 Integral Threshold     Thresh          ....  1.000e-10 Eh
 Primitive CutOff       TCut            ....  1.000e-11 Eh

Convergence Tolerance:
 Convergence Check Mode ConvCheckMode   .... Total+1el-Energy
 Convergence forced     ConvForced      .... 0
 Energy Change          TolE            ....  1.000e-06 Eh
 1-El. energy change                    ....  1.000e-03 Eh
 Orbital Gradient       TolG            ....  5.000e-05
 Orbital Rotation angle TolX            ....  5.000e-05
 DIIS Error             TolErr          ....  1.000e-06


Diagonalization of the overlap matrix:
Smallest eigenvalue                        ... 6.550e-04
Time for diagonalization                   ...    0.017 sec
Threshold for overlap eigenvalues          ... 1.000e-08
Number of eigenvalues below threshold      ... 0
Time for construction of square roots      ...    0.026 sec
Total time needed                          ...    0.044 sec

-------------------
DFT GRID GENERATION
-------------------

General Integration Accuracy     IntAcc      ...  4.340
Radial Grid Type                 RadialGrid  ... Gauss-Chebyshev
Angular Grid (max. acc.)         AngularGrid ... Lebedev-110
Angular grid pruning method      GridPruning ... 3 (G Style)
Weight generation scheme         WeightScheme... Becke
Basis function cutoff            BFCut       ...    1.0000e-10
Integration weight cutoff        WCut        ...    1.0000e-14
Grids for H and He will be reduced by one unit

# of grid points (after initial pruning)     ...  41088 (   0.0 sec)
# of grid points (after weights+screening)   ...  37049 (   0.0 sec)
nearest neighbour list constructed           ...    0.0 sec
Grid point re-assignment to atoms done       ...    0.0 sec
Grid point division into batches done        ...    0.0 sec
Reduced shell lists constructed in    0.1 sec

Total number of grid points                  ...    37049
Total number of batches                      ...      595
Average number of points per batch           ...       62
Average number of grid points per atom       ...     1090
Average number of shells per batch           ...    75.38 (48.95%)
Average number of basis functions per batch  ...   149.03 (46.28%)
Average number of large shells per batch     ...    48.21 (63.95%)
Average number of large basis fcns per batch ...   100.05 (67.14%)
Maximum spatial batch extension              ...  18.26, 14.91, 12.75 au
Average spatial batch extension              ...   0.26,  0.24,  0.19 au

Time for grid setup =    0.201 sec

------------------------------
INITIAL GUESS: MODEL POTENTIAL
------------------------------
Loading Hartree-Fock densities                     ... done
Calculating cut-offs                               ... done
Setting up the integral package                    ... done
Initializing the effective Hamiltonian             ... done
Starting the Coulomb interaction                   ... done (   0.0 sec)
Reading the grid                                   ... done
Mapping shells                                     ... done
Starting the XC term evaluation                    ... done (   0.0 sec)
  promolecular density results
     # of electrons  =    133.990588156
     EX              =   -126.833650035
     EC              =     -4.636921589
     EX+EC           =   -131.470571624
Transforming the Hamiltonian                       ... done (   0.0 sec)
Diagonalizing the Hamiltonian                      ... done (   0.0 sec)
Back transforming the eigenvectors                 ... done (   0.0 sec)
Now organizing SCF variables                       ... done
                      ------------------
                      INITIAL GUESS DONE (   0.5 sec)
                      ------------------
--------------
SCF ITERATIONS
--------------
ITER       Energy         Delta-E        Max-DP      RMS-DP      [F,P]     Damp
               ***  Starting incremental Fock matrix formation  ***
  0  -1339.3955588396   0.000000000000 0.06975443  0.00166557  0.1665941 0.7000
  1  -1339.5925940184  -0.197035178828 0.04680595  0.00121205  0.1009104 0.7000
                               ***Turning on DIIS***
  2  -1339.6887324421  -0.096138423648 0.09563695  0.00228128  0.0524643 0.0000
  3  -1339.8342524845  -0.145520042423 0.04543826  0.00103837  0.0378074 0.0000
  4  -1339.8648060652  -0.030553580699 0.00808357  0.00021574  0.0080324 0.0000
                      *** Initiating the SOSCF procedure ***
                           *** Shutting down DIIS ***
                      *** Re-Reading the Fockian *** 
                      *** Removing any level shift *** 
ITER      Energy       Delta-E        Grad      Rot      Max-DP    RMS-DP
  5  -1339.86578229  -0.0009762297  0.001400  0.001400  0.003898  0.000110
               *** Restarting incremental Fock matrix formation ***
  6  -1339.86597964  -0.0001973497  0.001092  0.003023  0.003080  0.000069
  7  -1339.86604401  -0.0000643680  0.000593  0.003597  0.003972  0.000068
  8  -1339.86606104  -0.0000170241  0.000435  0.000842  0.000929  0.000022
  9  -1339.86606579  -0.0000047499  0.000155  0.000418  0.000334  0.000009
 10  -1339.86606628  -0.0000004974  0.000075  0.000215  0.000158  0.000004
                 **** Energy Check signals convergence ****
              ***Rediagonalizing the Fockian in SOSCF/NRSCF***

               *****************************************************
               *                     SUCCESS                       *
               *           SCF CONVERGED AFTER  11 CYCLES          *
               *****************************************************

Setting up the final grid:

General Integration Accuracy     IntAcc      ...  4.670
Radial Grid Type                 RadialGrid  ... Gauss-Chebyshev
Angular Grid (max. acc.)         AngularGrid ... Lebedev-302
Angular grid pruning method      GridPruning ... 3 (G Style)
Weight generation scheme         WeightScheme... Becke
Basis function cutoff            BFCut       ...    1.0000e-10
Integration weight cutoff        WCut        ...    1.0000e-14
Grids for H and He will be reduced by one unit

# of grid points (after initial pruning)     ... 161752 (   0.0 sec)
# of grid points (after weights+screening)   ... 143243 (   0.2 sec)
nearest neighbour list constructed           ...    0.0 sec
Grid point re-assignment to atoms done       ...    0.0 sec
Grid point division into batches done        ...    0.6 sec
Reduced shell lists constructed in    0.7 sec

Total number of grid points                  ...   143243
Total number of batches                      ...     2257
Average number of points per batch           ...       63
Average number of grid points per atom       ...     4213
Average number of shells per batch           ...    69.23 (44.96%)
Average number of basis functions per batch  ...   136.92 (42.52%)
Average number of large shells per batch     ...    42.88 (61.94%)
Average number of large basis fcns per batch ...    88.35 (64.53%)
Maximum spatial batch extension              ...  14.72, 15.28, 12.77 au
Average spatial batch extension              ...   0.15,  0.15,  0.14 au

Final grid set up in    1.1 sec
Final integration                            ... done (   0.3 sec)
Change in XC energy                          ...     0.008865133
Integrated number of electrons               ...   134.000032940
Previous integrated no of electrons          ...   133.999408755

----------------
TOTAL SCF ENERGY
----------------

Total Energy       :        -1339.85720141 Eh          -36459.36801 eV

Components:
Nuclear Repulsion  :         1272.98016114 Eh           34639.55123 eV
Electronic Energy  :        -2612.83736255 Eh          -71098.91923 eV
One Electron Energy:        -4362.41798544 Eh         -118707.42835 eV
Two Electron Energy:         1749.58062289 Eh           47608.50912 eV

Virial components:
Potential Energy   :        -2672.16338265 Eh          -72713.26231 eV
Kinetic Energy     :         1332.30618125 Eh           36253.89430 eV
Virial Ratio       :            2.00566763


DFT components:
N(Alpha)           :       67.000016469905 electrons
N(Beta)            :       67.000016469905 electrons
N(Total)           :      134.000032939811 electrons
E(XC)              :      -94.407910980695 Eh       
DFET-embed. en.    :        0.000000000000 Eh       

---------------
SCF CONVERGENCE
---------------

  Last Energy change         ...   -2.5406e-07  Tolerance :   1.0000e-06
  Last MAX-Density change    ...    3.5312e-05  Tolerance :   1.0000e-05
  Last RMS-Density change    ...    6.6954e-07  Tolerance :   1.0000e-06
  Last Orbital Gradient      ...    9.3860e-06  Tolerance :   5.0000e-05
  Last Orbital Rotation      ...    1.5893e-05  Tolerance :   5.0000e-05

             **** THE GBW FILE WAS UPDATED (config_9159.gbw) ****
             **** DENSITY FILE WAS UPDATED (config_9159.scfp) ****
             **** ENERGY FILE WAS UPDATED (config_9159.en.tmp) ****
             **** THE GBW FILE WAS UPDATED (config_9159.gbw) ****
             **** DENSITY FILE WAS UPDATED (config_9159.scfp) ****
----------------
ORBITAL ENERGIES
----------------

  NO   OCC          E(Eh)            E(eV) 
   0   2.0000     -88.963784     -2420.8276 
   1   2.0000     -88.961955     -2420.7779 
   2   2.0000     -10.324166      -280.9348 
   3   2.0000     -10.319524      -280.8085 
   4   2.0000     -10.309350      -280.5317 
   5   2.0000     -10.306086      -280.4429 
   6   2.0000     -10.295321      -280.1499 
   7   2.0000     -10.295280      -280.1488 
   8   2.0000     -10.289301      -279.9861 
   9   2.0000     -10.288100      -279.9534 
  10   2.0000     -10.287515      -279.9375 
  11   2.0000     -10.286744      -279.9165 
  12   2.0000     -10.286671      -279.9145 
  13   2.0000     -10.283266      -279.8219 
  14   2.0000     -10.281395      -279.7710 
  15   2.0000     -10.266539      -279.3667 
  16   2.0000      -8.081074      -219.8972 
  17   2.0000      -8.076579      -219.7749 
  18   2.0000      -6.039428      -164.3412 
  19   2.0000      -6.035225      -164.2268 
  20   2.0000      -6.035159      -164.2250 
  21   2.0000      -6.031902      -164.1364 
  22   2.0000      -6.031136      -164.1155 
  23   2.0000      -6.027159      -164.0073 
  24   2.0000      -1.019044       -27.7296 
  25   2.0000      -0.990950       -26.9651 
  26   2.0000      -0.927926       -25.2501 
  27   2.0000      -0.906766       -24.6744 
  28   2.0000      -0.879054       -23.9203 
  29   2.0000      -0.855406       -23.2768 
  30   2.0000      -0.849531       -23.1169 
  31   2.0000      -0.818100       -22.2616 
  32   2.0000      -0.784263       -21.3409 
  33   2.0000      -0.770592       -20.9689 
  34   2.0000      -0.714264       -19.4361 
  35   2.0000      -0.704830       -19.1794 
  36   2.0000      -0.697266       -18.9736 
  37   2.0000      -0.661795       -18.0083 
  38   2.0000      -0.640440       -17.4273 
  39   2.0000      -0.618599       -16.8329 
  40   2.0000      -0.597322       -16.2540 
  41   2.0000      -0.584842       -15.9144 
  42   2.0000      -0.569552       -15.4983 
  43   2.0000      -0.567100       -15.4316 
  44   2.0000      -0.535533       -14.5726 
  45   2.0000      -0.524133       -14.2624 
  46   2.0000      -0.521336       -14.1863 
  47   2.0000      -0.514498       -14.0002 
  48   2.0000      -0.509409       -13.8617 
  49   2.0000      -0.504125       -13.7179 
  50   2.0000      -0.495092       -13.4721 
  51   2.0000      -0.484741       -13.1905 
  52   2.0000      -0.476207       -12.9583 
  53   2.0000      -0.462813       -12.5938 
  54   2.0000      -0.460570       -12.5328 
  55   2.0000      -0.454931       -12.3793 
  56   2.0000      -0.450416       -12.2564 
  57   2.0000      -0.439052       -11.9472 
  58   2.0000      -0.426584       -11.6079 
  59   2.0000      -0.421558       -11.4712 
  60   2.0000      -0.419281       -11.4092 
  61   2.0000      -0.415695       -11.3116 
  62   2.0000      -0.413205       -11.2439 
  63   2.0000      -0.353151        -9.6097 
  64   2.0000      -0.328411        -8.9365 
  65   2.0000      -0.322858        -8.7854 
  66   2.0000      -0.290274        -7.8988 
  67   0.0000       0.033119         0.9012 
  68   0.0000       0.079446         2.1618 
  69   0.0000       0.115469         3.1421 
  70   0.0000       0.129983         3.5370 
  71   0.0000       0.134190         3.6515 
  72   0.0000       0.144243         3.9251 
  73   0.0000       0.150232         4.0880 
  74   0.0000       0.159070         4.3285 
  75   0.0000       0.167736         4.5643 
  76   0.0000       0.170908         4.6506 
  77   0.0000       0.179177         4.8756 
  78   0.0000       0.185910         5.0589 
  79   0.0000       0.195412         5.3174 
  80   0.0000       0.201320         5.4782 
  81   0.0000       0.203492         5.5373 
  82   0.0000       0.205576         5.5940 
  83   0.0000       0.222417         6.0523 
  84   0.0000       0.223694         6.0870 
  85   0.0000       0.238589         6.4923 
  86   0.0000       0.239911         6.5283 
  87   0.0000       0.247486         6.7344 
  88   0.0000       0.249269         6.7830 
  89   0.0000       0.253505         6.8982 
  90   0.0000       0.268767         7.3135 
  91   0.0000       0.280278         7.6267 
  92   0.0000       0.281588         7.6624 
  93   0.0000       0.309443         8.4204 
  94   0.0000       0.314504         8.5581 
  95   0.0000       0.318330         8.6622 
  96   0.0000       0.330342         8.9891 
  97   0.0000       0.333995         9.0885 
  98   0.0000       0.348345         9.4789 
  99   0.0000       0.379192        10.3183 
 100   0.0000       0.395267        10.7558 
 101   0.0000       0.401138        10.9155 
 102   0.0000       0.411702        11.2030 
 103   0.0000       0.425125        11.5682 
 104   0.0000       0.434657        11.8276 
 105   0.0000       0.446264        12.1435 
 106   0.0000       0.460058        12.5188 
 107   0.0000       0.482578        13.1316 
 108   0.0000       0.497108        13.5270 
 109   0.0000       0.499749        13.5989 
 110   0.0000       0.504961        13.7407 
 111   0.0000       0.510677        13.8962 
 112   0.0000       0.518395        14.1062 
 113   0.0000       0.524170        14.2634 
 114   0.0000       0.530193        14.4273 
 115   0.0000       0.539411        14.6781 
 116   0.0000       0.546216        14.8633 
 117   0.0000       0.552387        15.0312 
 118   0.0000       0.562391        15.3034 
 119   0.0000       0.565839        15.3973 
 120   0.0000       0.581583        15.8257 
 121   0.0000       0.592303        16.1174 
 122   0.0000       0.600617        16.3436 
 123   0.0000       0.608983        16.5713 
 124   0.0000       0.616416        16.7735 
 125   0.0000       0.624294        16.9879 
 126   0.0000       0.639434        17.3999 
 127   0.0000       0.649655        17.6780 
 128   0.0000       0.655570        17.8390 
 129   0.0000       0.665471        18.1084 
 130   0.0000       0.668863        18.2007 
 131   0.0000       0.681330        18.5399 
 132   0.0000       0.690579        18.7916 
 133   0.0000       0.698087        18.9959 
 134   0.0000       0.712986        19.4013 
 135   0.0000       0.718604        19.5542 
 136   0.0000       0.724773        19.7221 
 137   0.0000       0.730477        19.8773 
 138   0.0000       0.738189        20.0871 
 139   0.0000       0.740623        20.1534 
 140   0.0000       0.748997        20.3813 
 141   0.0000       0.753233        20.4965 
 142   0.0000       0.755468        20.5573 
 143   0.0000       0.762372        20.7452 
 144   0.0000       0.769834        20.9483 
 145   0.0000       0.772602        21.0236 
 146   0.0000       0.775827        21.1113 
 147   0.0000       0.780508        21.2387 
 148   0.0000       0.781145        21.2560 
 149   0.0000       0.787199        21.4208 
 150   0.0000       0.788805        21.4645 
 151   0.0000       0.794514        21.6198 
 152   0.0000       0.800116        21.7723 
 153   0.0000       0.803140        21.8546 
 154   0.0000       0.806246        21.9391 
 155   0.0000       0.808727        22.0066 
 156   0.0000       0.816817        22.2267 
 157   0.0000       0.822014        22.3681 
 158   0.0000       0.828719        22.5506 
 159   0.0000       0.836843        22.7717 
 160   0.0000       0.839537        22.8450 
 161   0.0000       0.843350        22.9487 
 162   0.0000       0.848387        23.0858 
 163   0.0000       0.852710        23.2034 
 164   0.0000       0.861104        23.4318 
 165   0.0000       0.869813        23.6688 
 166   0.0000       0.874532        23.7972 
 167   0.0000       0.879287        23.9266 
 168   0.0000       0.887373        24.1467 
 169   0.0000       0.909075        24.7372 
 170   0.0000       0.916787        24.9470 
 171   0.0000       0.925764        25.1913 
 172   0.0000       0.935943        25.4683 
 173   0.0000       0.945703        25.7339 
 174   0.0000       0.965619        26.2758 
 175   0.0000       0.976889        26.5825 
 176   0.0000       0.998366        27.1669 
 177   0.0000       1.005937        27.3730 
 178   0.0000       1.028697        27.9923 
 179   0.0000       1.036140        28.1948 
 180   0.0000       1.063092        28.9282 
 181   0.0000       1.067174        29.0393 
 182   0.0000       1.090152        29.6645 
 183   0.0000       1.105923        30.0937 
 184   0.0000       1.126199        30.6454 
 185   0.0000       1.135657        30.9028 
 186   0.0000       1.147521        31.2256 
 187   0.0000       1.160657        31.5831 
 188   0.0000       1.186578        32.2884 
 189   0.0000       1.206843        32.8399 
 190   0.0000       1.227296        33.3964 
 191   0.0000       1.234470        33.5916 
 192   0.0000       1.262871        34.3645 
 193   0.0000       1.288055        35.0498 
 194   0.0000       1.298695        35.3393 
 195   0.0000       1.311549        35.6891 
 196   0.0000       1.329577        36.1796 
 197   0.0000       1.350374        36.7456 
 198   0.0000       1.361094        37.0372 
 199   0.0000       1.370980        37.3063 
 200   0.0000       1.396873        38.0109 
 201   0.0000       1.401310        38.1316 
 202   0.0000       1.425210        38.7819 
 203   0.0000       1.438750        39.1504 
 204   0.0000       1.453327        39.5470 
 205   0.0000       1.461368        39.7659 
 206   0.0000       1.473001        40.0824 
 207   0.0000       1.515363        41.2351 
 208   0.0000       1.520494        41.3747 
 209   0.0000       1.565411        42.5970 
 210   0.0000       1.595286        43.4100 
 211   0.0000       1.605694        43.6931 
 212   0.0000       1.622137        44.1406 
 213   0.0000       1.629603        44.3438 
 214   0.0000       1.652039        44.9543 
 215   0.0000       1.669198        45.4212 
 216   0.0000       1.676588        45.6223 
 217   0.0000       1.701201        46.2920 
 218   0.0000       1.773194        48.2511 
 219   0.0000       1.784879        48.5690 
 220   0.0000       1.796737        48.8917 
 221   0.0000       1.811571        49.2954 
 222   0.0000       1.822072        49.5811 
 223   0.0000       1.829300        49.7778 
 224   0.0000       1.832553        49.8663 
 225   0.0000       1.843975        50.1771 
 226   0.0000       1.851021        50.3688 
 227   0.0000       1.852578        50.4112 
 228   0.0000       1.855166        50.4816 
 229   0.0000       1.873480        50.9800 
 230   0.0000       1.877823        51.0982 
 231   0.0000       1.884178        51.2711 
 232   0.0000       1.888155        51.3793 
 233   0.0000       1.894898        51.5628 
 234   0.0000       1.903735        51.8032 
 235   0.0000       1.914545        52.0974 
 236   0.0000       1.921682        52.2916 
 237   0.0000       1.932852        52.5956 
 238   0.0000       1.937513        52.7224 
 239   0.0000       1.950341        53.0715 
 240   0.0000       1.959058        53.3087 
 241   0.0000       1.963004        53.4161 
 242   0.0000       1.966511        53.5115 
 243   0.0000       1.981509        53.9196 
 244   0.0000       1.989503        54.1371 
 245   0.0000       1.998998        54.3955 
 246   0.0000       2.002599        54.4935 
 247   0.0000       2.006062        54.5877 
 248   0.0000       2.032158        55.2978 
 249   0.0000       2.033759        55.3414 
 250   0.0000       2.047823        55.7241 
 251   0.0000       2.062307        56.1182 
 252   0.0000       2.067736        56.2659 
 253   0.0000       2.080118        56.6029 
 254   0.0000       2.097297        57.0703 
 255   0.0000       2.104069        57.2546 
 256   0.0000       2.132522        58.0289 
 257   0.0000       2.143415        58.3253 
 258   0.0000       2.148899        58.4745 
 259   0.0000       2.156725        58.6875 
 260   0.0000       2.178733        59.2864 
 261   0.0000       2.195603        59.7454 
 262   0.0000       2.204334        59.9830 
 263   0.0000       2.222081        60.4659 
 264   0.0000       2.229610        60.6708 
 265   0.0000       2.251209        61.2585 
 266   0.0000       2.265511        61.6477 
 267   0.0000       2.291663        62.3593 
 268   0.0000       2.313206        62.9455 
 269   0.0000       2.321511        63.1715 
 270   0.0000       2.332984        63.4837 
 271   0.0000       2.370060        64.4926 
 272   0.0000       2.391630        65.0795 
 273   0.0000       2.416959        65.7688 
 274   0.0000       2.428267        66.0765 
 275   0.0000       2.441237        66.4294 
 276   0.0000       2.453226        66.7557 
 277   0.0000       2.459678        66.9312 
 278   0.0000       2.469779        67.2061 
 279   0.0000       2.498031        67.9749 
 280   0.0000       2.501028        68.0564 
 281   0.0000       2.511039        68.3288 
 282   0.0000       2.516461        68.4764 
 283   0.0000       2.538379        69.0728 
 284   0.0000       2.562025        69.7163 
 285   0.0000       2.575495        70.0828 
 286   0.0000       2.597935        70.6934 
 287   0.0000       2.602843        70.8270 
 288   0.0000       2.619168        71.2712 
 289   0.0000       2.647265        72.0357 
 290   0.0000       2.665588        72.5343 
 291   0.0000       2.689509        73.1853 
 292   0.0000       2.696409        73.3730 
 293   0.0000       2.708333        73.6975 
 294   0.0000       2.724390        74.1344 
 295   0.0000       2.763741        75.2052 
 296   0.0000       2.780432        75.6594 
 297   0.0000       2.787270        75.8455 
 298   0.0000       2.800050        76.1932 
 299   0.0000       2.844780        77.4104 
 300   0.0000       2.885949        78.5307 
 301   0.0000       2.898332        78.8676 
 302   0.0000       2.920562        79.4725 
 303   0.0000       2.962008        80.6003 
 304   0.0000       2.965939        80.7073 
 305   0.0000       2.985713        81.2454 
 306   0.0000       2.989107        81.3377 
 307   0.0000       3.025177        82.3193 
 308   0.0000       3.050171        82.9994 
 309   0.0000       3.053225        83.0825 
 310   0.0000       3.077733        83.7494 
 311   0.0000       3.104681        84.4827 
 312   0.0000       3.124739        85.0285 
 313   0.0000       3.132718        85.2456 
 314   0.0000       3.153420        85.8089 
 315   0.0000       3.175490        86.4095 
 316   0.0000       3.193813        86.9081 
 317   0.0000       3.220839        87.6435 
 318   0.0000       3.256587        88.6162 
 319   0.0000       3.273888        89.0870 
 320   0.0000       3.408513        92.7504 
 321   0.0000       3.505334        95.3850 

                    ********************************
                    * MULLIKEN POPULATION ANALYSIS *
                    ********************************

-----------------------
MULLIKEN ATOMIC CHARGES
-----------------------
   0 S :    0.127342
   1 C :   -0.111219
   2 C :   -0.125420
   3 C :    0.033813
   4 C :   -0.145650
   5 H :   -0.002678
   6 C :    0.083908
   7 H :    0.024604
   8 H :    0.048855
   9 C :   -0.100377
  10 H :    0.037188
  11 H :    0.024015
  12 C :    0.010799
  13 H :    0.016380
  14 H :    0.010675
  15 H :    0.015020
  16 S :    0.093533
  17 C :   -0.061698
  18 C :   -0.012119
  19 C :   -0.058472
  20 C :   -0.138560
  21 H :    0.004477
  22 C :    0.078572
  23 H :    0.014896
  24 H :    0.025959
  25 C :   -0.077312
  26 H :    0.015333
  27 H :    0.025674
  28 C :   -0.055002
  29 H :    0.043342
  30 H :    0.038067
  31 H :    0.044611
  32 H :    0.037178
  33 H :    0.034265
Sum of atomic charges:   -0.0000000

--------------------------------
MULLIKEN REDUCED ORBITAL CHARGES
--------------------------------
  0 S s       :     5.833376  s :     5.833376
      pz      :     3.009899  p :     9.910307
      px      :     3.459614
      py      :     3.440794
      dz2     :     0.025644  d :     0.128974
      dxz     :     0.028668
      dyz     :     0.040834
      dx2y2   :     0.015508
      dxy     :     0.018320
  1 C s       :     3.167856  s :     3.167856
      pz      :     0.830736  p :     2.908068
      px      :     1.087241
      py      :     0.990091
      dz2     :     0.008095  d :     0.035295
      dxz     :     0.005101
      dyz     :     0.010629
      dx2y2   :     0.005911
      dxy     :     0.005559
  2 C s       :     3.092299  s :     3.092299
      pz      :     1.006741  p :     2.988712
      px      :     0.993856
      py      :     0.988115
      dz2     :     0.011038  d :     0.044409
      dxz     :     0.007525
      dyz     :     0.010304
      dx2y2   :     0.008630
      dxy     :     0.006912
  3 C s       :     3.200892  s :     3.200892
      pz      :     0.917484  p :     2.731632
      px      :     0.985452
      py      :     0.828696
      dz2     :     0.008861  d :     0.033663
      dxz     :     0.005701
      dyz     :     0.009158
      dx2y2   :     0.004345
      dxy     :     0.005598
  4 C s       :     3.050242  s :     3.050242
      pz      :     1.028867  p :     3.046776
      px      :     1.037136
      py      :     0.980773
      dz2     :     0.010690  d :     0.048632
      dxz     :     0.007046
      dyz     :     0.014610
      dx2y2   :     0.007712
      dxy     :     0.008574
  5 H s       :     0.977908  s :     0.977908
      pz      :     0.004946  p :     0.024770
      px      :     0.007597
      py      :     0.012226
  6 C s       :     2.931762  s :     2.931762
      pz      :     0.943754  p :     2.945455
      px      :     1.020531
      py      :     0.981170
      dz2     :     0.005201  d :     0.038875
      dxz     :     0.008925
      dyz     :     0.011764
      dx2y2   :     0.007796
      dxy     :     0.005189
  7 H s       :     0.952062  s :     0.952062
      pz      :     0.006946  p :     0.023334
      px      :     0.004466
      py      :     0.011922
  8 H s       :     0.927721  s :     0.927721
      pz      :     0.006428  p :     0.023424
      px      :     0.011234
      py      :     0.005762
  9 C s       :     3.067637  s :     3.067637
      pz      :     0.981142  p :     2.994799
      px      :     1.002741
      py      :     1.010916
      dz2     :     0.005941  d :     0.037941
      dxz     :     0.009859
      dyz     :     0.008358
      dx2y2   :     0.007021
      dxy     :     0.006762
 10 H s       :     0.940503  s :     0.940503
      pz      :     0.004675  p :     0.022309
      px      :     0.011416
      py      :     0.006217
 11 H s       :     0.953816  s :     0.953816
      pz      :     0.005987  p :     0.022170
      px      :     0.004895
      py      :     0.011288
 12 C s       :     2.945700  s :     2.945700
      pz      :     0.995124  p :     3.013349
      px      :     0.989647
      py      :     1.028579
      dz2     :     0.003428  d :     0.030151
      dxz     :     0.010237
      dyz     :     0.005536
      dx2y2   :     0.003849
      dxy     :     0.007102
 13 H s       :     0.957189  s :     0.957189
      pz      :     0.009716  p :     0.026431
      px      :     0.010748
      py      :     0.005967
 14 H s       :     0.963367  s :     0.963367
      pz      :     0.007598  p :     0.025958
      px      :     0.010879
      py      :     0.007481
 15 H s       :     0.959737  s :     0.959737
      pz      :     0.005871  p :     0.025243
      px      :     0.007585
      py      :     0.011787
 16 S s       :     5.849174  s :     5.849174
      pz      :     2.952492  p :     9.953662
      px      :     3.328480
      py      :     3.672690
      dz2     :     0.014201  d :     0.103631
      dxz     :     0.045312
      dyz     :     0.021143
      dx2y2   :     0.012371
      dxy     :     0.010605
 17 C s       :     3.137289  s :     3.137289
      pz      :     0.868918  p :     2.888125
      px      :     0.941427
      py      :     1.077780
      dz2     :     0.007874  d :     0.036284
      dxz     :     0.012023
      dyz     :     0.003882
      dx2y2   :     0.005631
      dxy     :     0.006873
 18 C s       :     3.156454  s :     3.156454
      pz      :     0.956557  p :     2.817157
      px      :     0.858904
      py      :     1.001695
      dz2     :     0.009430  d :     0.038507
      dxz     :     0.011747
      dyz     :     0.006308
      dx2y2   :     0.005544
      dxy     :     0.005479
 19 C s       :     3.061691  s :     3.061691
      pz      :     0.977185  p :     2.952402
      px      :     0.976986
      py      :     0.998231
      dz2     :     0.011394  d :     0.044379
      dxz     :     0.012277
      dyz     :     0.007003
      dx2y2   :     0.006349
      dxy     :     0.007357
 20 C s       :     3.043552  s :     3.043552
      pz      :     0.963821  p :     3.050159
      px      :     0.964544
      py      :     1.121795
      dz2     :     0.009585  d :     0.044850
      dxz     :     0.016564
      dyz     :     0.006494
      dx2y2   :     0.005221
      dxy     :     0.006984
 21 H s       :     0.970891  s :     0.970891
      pz      :     0.008029  p :     0.024633
      px      :     0.011345
      py      :     0.005258
 22 C s       :     2.943197  s :     2.943197
      pz      :     1.006676  p :     2.942123
      px      :     0.920848
      py      :     1.014599
      dz2     :     0.009483  d :     0.036107
      dxz     :     0.006147
      dyz     :     0.002596
      dx2y2   :     0.010775
      dxy     :     0.007107
 23 H s       :     0.961378  s :     0.961378
      pz      :     0.014932  p :     0.023725
      px      :     0.004222
      py      :     0.004571
 24 H s       :     0.950914  s :     0.950914
      pz      :     0.005395  p :     0.023127
      px      :     0.004721
      py      :     0.013010
 25 C s       :     3.035183  s :     3.035183
      pz      :     1.023070  p :     3.004915
      px      :     0.963364
      py      :     1.018481
      dz2     :     0.012039  d :     0.037214
      dxz     :     0.006332
      dyz     :     0.001782
      dx2y2   :     0.008929
      dxy     :     0.008132
 26 H s       :     0.961364  s :     0.961364
      pz      :     0.013989  p :     0.023303
      px      :     0.003969
      py      :     0.005345
 27 H s       :     0.950971  s :     0.950971
      pz      :     0.005115  p :     0.023355
      px      :     0.005029
      py      :     0.013211
 28 C s       :     3.038464  s :     3.038464
      pz      :     1.010958  p :     2.988834
      px      :     0.957933
      py      :     1.019944
      dz2     :     0.007205  d :     0.027704
      dxz     :     0.005223
      dyz     :     0.002349
      dx2y2   :     0.003860
      dxy     :     0.009067
 29 H s       :     0.933877  s :     0.933877
      pz      :     0.004286  p :     0.022781
      px      :     0.006348
      py      :     0.012147
 30 H s       :     0.938800  s :     0.938800
      pz      :     0.005445  p :     0.023134
      px      :     0.008076
      py      :     0.009612
 31 H s       :     0.933129  s :     0.933129
      pz      :     0.012768  p :     0.022260
      px      :     0.004941
      py      :     0.004551
 32 H s       :     0.938057  s :     0.938057
      pz      :     0.013795  p :     0.024765
      px      :     0.006505
      py      :     0.004466
 33 H s       :     0.939914  s :     0.939914
      pz      :     0.015107  p :     0.025822
      px      :     0.004431
      py      :     0.006283


                     *******************************
                     * LOEWDIN POPULATION ANALYSIS *
                     *******************************

----------------------
LOEWDIN ATOMIC CHARGES
----------------------
   0 S :    0.464276
   1 C :   -0.224014
   2 C :   -0.062489
   3 C :   -0.054869
   4 C :   -0.230204
   5 H :    0.021892
   6 C :   -0.038142
   7 H :    0.033818
   8 H :    0.045872
   9 C :   -0.037326
  10 H :    0.027673
  11 H :    0.023112
  12 C :   -0.053057
  13 H :    0.016280
  14 H :    0.020483
  15 H :    0.021913
  16 S :    0.389064
  17 C :   -0.163744
  18 C :   -0.066884
  19 C :   -0.061841
  20 C :   -0.194180
  21 H :    0.028354
  22 C :   -0.035178
  23 H :    0.025669
  24 H :    0.031881
  25 C :   -0.045039
  26 H :    0.014916
  27 H :    0.025342
  28 C :   -0.068817
  29 H :    0.026952
  30 H :    0.031559
  31 H :    0.036923
  32 H :    0.027338
  33 H :    0.022467

-------------------------------
LOEWDIN REDUCED ORBITAL CHARGES
-------------------------------
  0 S s       :     5.440020  s :     5.440020
      pz      :     3.021895  p :     9.931566
      px      :     3.450876
      py      :     3.458794
      dz2     :     0.034489  d :     0.164139
      dxz     :     0.037217
      dyz     :     0.053879
      dx2y2   :     0.016534
      dxy     :     0.022020
  1 C s       :     2.915016  s :     2.915016
      pz      :     1.026332  p :     3.223300
      px      :     1.115396
      py      :     1.081572
      dz2     :     0.020324  d :     0.085698
      dxz     :     0.011083
      dyz     :     0.027374
      dx2y2   :     0.013711
      dxy     :     0.013207
  2 C s       :     2.863805  s :     2.863805
      pz      :     1.039092  p :     3.088807
      px      :     0.995921
      py      :     1.053794
      dz2     :     0.030195  d :     0.109876
      dxz     :     0.016259
      dyz     :     0.026773
      dx2y2   :     0.019869
      dxy     :     0.016779
  3 C s       :     2.867478  s :     2.867478
      pz      :     1.027046  p :     3.097792
      px      :     1.027284
      py      :     1.043462
      dz2     :     0.025636  d :     0.089598
      dxz     :     0.013146
      dyz     :     0.025608
      dx2y2   :     0.012057
      dxy     :     0.013150
  4 C s       :     2.886859  s :     2.886859
      pz      :     1.071255  p :     3.224458
      px      :     1.061346
      py      :     1.091857
      dz2     :     0.028566  d :     0.118887
      dxz     :     0.016366
      dyz     :     0.037524
      dx2y2   :     0.017824
      dxy     :     0.018608
  5 H s       :     0.903306  s :     0.903306
      pz      :     0.016497  p :     0.074802
      px      :     0.023082
      py      :     0.035224
  6 C s       :     2.810285  s :     2.810285
      pz      :     1.032511  p :     3.127623
      px      :     1.055751
      py      :     1.039360
      dz2     :     0.011882  d :     0.100235
      dxz     :     0.024618
      dyz     :     0.031555
      dx2y2   :     0.020774
      dxy     :     0.011405
  7 H s       :     0.897634  s :     0.897634
      pz      :     0.020838  p :     0.068548
      px      :     0.014017
      py      :     0.033693
  8 H s       :     0.887565  s :     0.887565
      pz      :     0.018396  p :     0.066563
      px      :     0.031736
      py      :     0.016431
  9 C s       :     2.828731  s :     2.828731
      pz      :     1.027293  p :     3.116276
      px      :     1.041135
      py      :     1.047848
      dz2     :     0.012834  d :     0.092319
      dxz     :     0.025486
      dyz     :     0.020649
      dx2y2   :     0.017089
      dxy     :     0.016262
 10 H s       :     0.906259  s :     0.906259
      pz      :     0.015486  p :     0.066068
      px      :     0.032896
      py      :     0.017686
 11 H s       :     0.913122  s :     0.913122
      pz      :     0.017920  p :     0.063766
      px      :     0.014161
      py      :     0.031685
 12 C s       :     2.805620  s :     2.805620
      pz      :     1.044373  p :     3.170494
      px      :     1.058715
      py      :     1.067407
      dz2     :     0.007521  d :     0.076943
      dxz     :     0.026528
      dyz     :     0.015441
      dx2y2   :     0.009236
      dxy     :     0.018217
 13 H s       :     0.906709  s :     0.906709
      pz      :     0.029269  p :     0.077011
      px      :     0.029284
      py      :     0.018457
 14 H s       :     0.907271  s :     0.907271
      pz      :     0.021705  p :     0.072246
      px      :     0.029514
      py      :     0.021027
 15 H s       :     0.907438  s :     0.907438
      pz      :     0.017252  p :     0.070648
      px      :     0.020795
      py      :     0.032601
 16 S s       :     5.516821  s :     5.516821
      pz      :     2.964201  p :     9.966951
      px      :     3.367268
      py      :     3.635482
      dz2     :     0.018523  d :     0.127164
      dxz     :     0.058662
      dyz     :     0.026042
      dx2y2   :     0.013425
      dxy     :     0.010511
 17 C s       :     2.911014  s :     2.911014
      pz      :     1.023583  p :     3.166539
      px      :     1.062611
      py      :     1.080345
      dz2     :     0.018992  d :     0.086191
      dxz     :     0.030975
      dyz     :     0.008126
      dx2y2   :     0.013345
      dxy     :     0.014753
 18 C s       :     2.844231  s :     2.844231
      pz      :     1.051925  p :     3.119904
      px      :     1.065612
      py      :     1.002367
      dz2     :     0.027936  d :     0.102750
      dxz     :     0.033411
      dyz     :     0.013815
      dx2y2   :     0.014918
      dxy     :     0.012670
 19 C s       :     2.851184  s :     2.851184
      pz      :     1.055456  p :     3.098728
      px      :     1.042819
      py      :     1.000453
      dz2     :     0.031374  d :     0.111930
      dxz     :     0.034095
      dyz     :     0.015516
      dx2y2   :     0.015638
      dxy     :     0.015307
 20 C s       :     2.900428  s :     2.900428
      pz      :     1.039506  p :     3.184871
      px      :     1.053839
      py      :     1.091526
      dz2     :     0.025198  d :     0.108881
      dxz     :     0.042088
      dyz     :     0.014714
      dx2y2   :     0.011824
      dxy     :     0.015057
 21 H s       :     0.899912  s :     0.899912
      pz      :     0.023967  p :     0.071734
      px      :     0.031474
      py      :     0.016292
 22 C s       :     2.823533  s :     2.823533
      pz      :     1.061566  p :     3.121226
      px      :     1.008482
      py      :     1.051178
      dz2     :     0.025128  d :     0.090418
      dxz     :     0.015081
      dyz     :     0.005917
      dx2y2   :     0.026105
      dxy     :     0.018187
 23 H s       :     0.904404  s :     0.904404
      pz      :     0.042047  p :     0.069927
      px      :     0.014084
      py      :     0.013796
 24 H s       :     0.901321  s :     0.901321
      pz      :     0.014883  p :     0.066799
      px      :     0.014406
      py      :     0.037510
 25 C s       :     2.828875  s :     2.828875
      pz      :     1.057670  p :     3.125902
      px      :     1.011418
      py      :     1.056814
      dz2     :     0.028976  d :     0.090262
      dxz     :     0.015563
      dyz     :     0.004072
      dx2y2   :     0.021844
      dxy     :     0.019806
 26 H s       :     0.915648  s :     0.915648
      pz      :     0.040253  p :     0.069436
      px      :     0.013980
      py      :     0.015203
 27 H s       :     0.905338  s :     0.905338
      pz      :     0.014597  p :     0.069320
      px      :     0.016259
      py      :     0.038464
 28 C s       :     2.846016  s :     2.846016
      pz      :     1.055910  p :     3.152655
      px      :     1.025022
      py      :     1.071723
      dz2     :     0.018256  d :     0.070145
      dxz     :     0.013694
      dyz     :     0.005398
      dx2y2   :     0.010621
      dxy     :     0.022177
 29 H s       :     0.907912  s :     0.907912
      pz      :     0.012845  p :     0.065136
      px      :     0.018625
      py      :     0.033667
 30 H s       :     0.903940  s :     0.903940
      pz      :     0.014919  p :     0.064501
      px      :     0.023424
      py      :     0.026158
 31 H s       :     0.902825  s :     0.902825
      pz      :     0.035422  p :     0.060252
      px      :     0.013012
      py      :     0.011818
 32 H s       :     0.896811  s :     0.896811
      pz      :     0.040884  p :     0.075852
      px      :     0.020340
      py      :     0.014628
 33 H s       :     0.897247  s :     0.897247
      pz      :     0.045365  p :     0.080286
      px      :     0.014692
      py      :     0.020229


                      *****************************
                      * MAYER POPULATION ANALYSIS *
                      *****************************

  NA   - Mulliken gross atomic population
  ZA   - Total nuclear charge
  QA   - Mulliken gross atomic charge
  VA   - Mayer's total valence
  BVA  - Mayer's bonded valence
  FA   - Mayer's free valence

  ATOM       NA         ZA         QA         VA         BVA        FA
  0 S     15.8727    16.0000     0.1273     2.5349     2.5349    -0.0000
  1 C      6.1112     6.0000    -0.1112     3.8142     3.8142    -0.0000
  2 C      6.1254     6.0000    -0.1254     4.0252     4.0252    -0.0000
  3 C      5.9662     6.0000     0.0338     3.9148     3.9148    -0.0000
  4 C      6.1457     6.0000    -0.1457     3.8549     3.8549    -0.0000
  5 H      1.0027     1.0000    -0.0027     1.0040     1.0040    -0.0000
  6 C      5.9161     6.0000     0.0839     3.9437     3.9437     0.0000
  7 H      0.9754     1.0000     0.0246     0.9922     0.9922     0.0000
  8 H      0.9511     1.0000     0.0489     0.9868     0.9868    -0.0000
  9 C      6.1004     6.0000    -0.1004     4.1061     4.1061     0.0000
 10 H      0.9628     1.0000     0.0372     0.9788     0.9788     0.0000
 11 H      0.9760     1.0000     0.0240     0.9762     0.9762     0.0000
 12 C      5.9892     6.0000     0.0108     4.0021     4.0021     0.0000
 13 H      0.9836     1.0000     0.0164     0.9891     0.9891     0.0000
 14 H      0.9893     1.0000     0.0107     0.9949     0.9949     0.0000
 15 H      0.9850     1.0000     0.0150     0.9945     0.9945     0.0000
 16 S     15.9065    16.0000     0.0935     2.4530     2.4530     0.0000
 17 C      6.0617     6.0000    -0.0617     3.8193     3.8193     0.0000
 18 C      6.0121     6.0000    -0.0121     3.9642     3.9642     0.0000
 19 C      6.0585     6.0000    -0.0585     4.0646     4.0646     0.0000
 20 C      6.1386     6.0000    -0.1386     3.9123     3.9123     0.0000
 21 H      0.9955     1.0000     0.0045     0.9958     0.9958    -0.0000
 22 C      5.9214     6.0000     0.0786     3.9452     3.9452     0.0000
 23 H      0.9851     1.0000     0.0149     1.0061     1.0061    -0.0000
 24 H      0.9740     1.0000     0.0260     0.9786     0.9786     0.0000
 25 C      6.0773     6.0000    -0.0773     4.0886     4.0886     0.0000
 26 H      0.9847     1.0000     0.0153     0.9815     0.9815     0.0000
 27 H      0.9743     1.0000     0.0257     0.9768     0.9768    -0.0000
 28 C      6.0550     6.0000    -0.0550     4.0069     4.0069    -0.0000
 29 H      0.9567     1.0000     0.0433     0.9858     0.9858     0.0000
 30 H      0.9619     1.0000     0.0381     0.9839     0.9839    -0.0000
 31 H      0.9554     1.0000     0.0446     0.9878     0.9878    -0.0000
 32 H      0.9628     1.0000     0.0372     1.0093     1.0093     0.0000
 33 H      0.9657     1.0000     0.0343     1.0021     1.0021    -0.0000

  Mayer bond orders larger than 0.100000
B(  0-S ,  1-C ) :   1.1521 B(  0-S ,  4-C ) :   1.1767 B(  1-C ,  2-C ) :   1.5831 
B(  1-C , 32-H ) :   0.9705 B(  2-C ,  3-C ) :   1.2769 B(  2-C ,  6-C ) :   1.0108 
B(  3-C ,  4-C ) :   1.5075 B(  3-C ,  5-H ) :   1.0027 B(  4-C , 20-C ) :   1.0471 
B(  6-C ,  7-H ) :   0.9351 B(  6-C ,  8-H ) :   0.9329 B(  6-C ,  9-C ) :   1.0859 
B(  9-C , 10-H ) :   0.9562 B(  9-C , 11-H ) :   0.9487 B(  9-C , 12-C ) :   1.0831 
B( 12-C , 13-H ) :   0.9706 B( 12-C , 14-H ) :   0.9735 B( 12-C , 15-H ) :   0.9700 
B( 16-S , 17-C ) :   1.1255 B( 16-S , 20-C ) :   1.1464 B( 17-C , 18-C ) :   1.6194 
B( 17-C , 33-H ) :   0.9735 B( 18-C , 19-C ) :   1.2543 B( 18-C , 21-H ) :   0.9911 
B( 19-C , 20-C ) :   1.5787 B( 19-C , 22-C ) :   1.0575 B( 22-C , 23-H ) :   0.9302 
B( 22-C , 24-H ) :   0.9199 B( 22-C , 25-C ) :   1.0610 B( 25-C , 26-H ) :   0.9483 
B( 25-C , 27-H ) :   0.9553 B( 25-C , 28-C ) :   1.0938 B( 28-C , 29-H ) :   0.9749 
B( 28-C , 30-H ) :   0.9714 B( 28-C , 31-H ) :   0.9721 

-------
TIMINGS
-------

Total SCF time: 0 days 0 hours 0 min 32 sec 

Total time                  ....      32.360 sec
Sum of individual times     ....      31.101 sec  ( 96.1%)

Fock matrix formation       ....      28.958 sec  ( 89.5%)
  XC integration            ....       1.902 sec  (  6.6% of F)
    Basis function eval.    ....       0.227 sec  ( 12.0% of XC)
    Density eval.           ....       0.169 sec  (  8.9% of XC)
    XC-Functional eval.     ....       0.190 sec  ( 10.0% of XC)
    XC-Potential eval.      ....       0.202 sec  ( 10.6% of XC)
Diagonalization             ....       0.141 sec  (  0.4%)
Density matrix formation    ....       0.028 sec  (  0.1%)
Population analysis         ....       0.049 sec  (  0.2%)
Initial guess               ....       0.332 sec  (  1.0%)
Orbital Transformation      ....       0.000 sec  (  0.0%)
Orbital Orthonormalization  ....       0.000 sec  (  0.0%)
DIIS solution               ....       0.184 sec  (  0.6%)
SOSCF solution              ....       0.138 sec  (  0.4%)
Grid generation             ....       1.270 sec  (  3.9%)


-------------------------------------------------------------------------------
                          DFT DISPERSION CORRECTION                            
                                                                               
                              DFTD3 V3.1  Rev 1                                
                              USING zero damping                               
-------------------------------------------------------------------------------
The omegaB97X-D3 functional is recognized. Fit by Chai et al.
Active option DFTDOPT                   ...         3   

molecular C6(AA) [au] = 14094.244372 


            DFT-D V3
 parameters
 s6 scaling factor         :     1.0000 
 rs6 scaling factor        :     1.2810 
 s8 scaling factor         :     1.0000 
 rs8 scaling factor        :     1.0940 
 Damping factor alpha6     :    14.0000 
 Damping factor alpha8     :    16.0000 
 ad hoc parameters k1-k3   :    16.0000     1.3333    -4.0000 

 Edisp/kcal,au: -8.345254684493  -0.013299008444 
 E6   /kcal   :  -3.723152540 
 E8   /kcal   :  -4.622102144 
 % E8         :  55.385992628 

-------------------------   ----------------
Dispersion correction           -0.013299008
-------------------------   ----------------


-------------------------   --------------------
FINAL SINGLE POINT ENERGY     -1339.870500413987
-------------------------   --------------------


                            ***************************************
                            *     ORCA property calculations      *
                            ***************************************

                                    ---------------------
                                    Active property flags
                                    ---------------------
   (+) Dipole Moment


------------------------------------------------------------------------------
                       ORCA ELECTRIC PROPERTIES CALCULATION
------------------------------------------------------------------------------

Dipole Moment Calculation                       ... on
Quadrupole Moment Calculation                   ... off
Polarizability Calculation                      ... off
GBWName                                         ... config_9159.gbw
Electron density file                           ... config_9159.scfp
The origin for moment calculation is the CENTER OF MASS  = (-171.307444, 111.351303 235.258189)

-------------
DIPOLE MOMENT
-------------
                                X             Y             Z
Electronic contribution:    -18.30303      12.74106      15.41659
Nuclear contribution   :     18.79617     -13.12941     -15.69306
                        -----------------------------------------
Total Dipole Moment    :      0.49314      -0.38836      -0.27648
                        -----------------------------------------
Magnitude (a.u.)       :      0.68589
Magnitude (Debye)      :      1.74340



--------------------
Rotational spectrum 
--------------------
 
Rotational constants in cm-1:     0.019149     0.007597     0.006082 
Rotational constants in MHz :   574.081619   227.765305   182.321957 

 Dipole components along the rotational axes: 
x,y,z [a.u.] :    -0.185507     0.633545    -0.186158 
x,y,z [Debye]:    -0.471521     1.610344    -0.473175 

 

Timings for individual modules:

Sum of individual times         ...       33.495 sec (=   0.558 min)
GTO integral calculation        ...        0.802 sec (=   0.013 min)   2.4 %
SCF iterations                  ...       32.693 sec (=   0.545 min)  97.6 %
                             ****ORCA TERMINATED NORMALLY****
TOTAL RUN TIME: 0 days 0 hours 0 minutes 34 seconds 235 msec
