
                                 *****************
                                 * O   R   C   A *
                                 *****************

           --- An Ab Initio, DFT and Semiempirical electronic structure package ---

                  #######################################################
                  #                        -***-                        #
                  #          Department of theory and spectroscopy      #
                  #               Directorship: Frank Neese             #
                  #        Max Planck Institute fuer Kohlenforschung    #
                  #                Kaiser Wilhelm Platz 1               #
                  #                 D-45470 Muelheim/Ruhr               #
                  #                      Germany                        #
                  #                                                     #
                  #                  All rights reserved                #
                  #                        -***-                        #
                  #######################################################


                         Program Version 4.2.1 -  RELEASE  -


 With contributions from (in alphabetic order):
   Daniel Aravena         : Magnetic Suceptibility
   Michael Atanasov       : Ab Initio Ligand Field Theory (pilot matlab implementation)
   Alexander A. Auer      : GIAO ZORA, VPT2
   Ute Becker             : Parallelization
   Giovanni Bistoni       : ED, misc. LED, open-shell LED, HFLD
   Martin Brehm           : Molecular dynamics
   Dmytro Bykov           : SCF Hessian
   Vijay G. Chilkuri      : MRCI spin determinant printing, contributions to CSF-ICE
   Dipayan Datta          : RHF DLPNO-CCSD density
   Achintya Kumar Dutta   : EOM-CC, STEOM-CC
   Dmitry Ganyushin       : Spin-Orbit,Spin-Spin,Magnetic field MRCI
   Miquel Garcia          : C-PCM Hessian, Gaussian charge scheme
   Yang Guo               : DLPNO-NEVPT2, CIM, IAO-localization
   Andreas Hansen         : Spin unrestricted coupled pair/coupled cluster methods
   Benjamin Helmich-Paris : CASSCF linear response (MC-RPA)
   Lee Huntington         : MR-EOM, pCC
   Robert Izsak           : Overlap fitted RIJCOSX, COSX-SCS-MP3, EOM
   Christian Kollmar      : KDIIS, OOCD, Brueckner-CCSD(T), CCSD density
   Simone Kossmann        : Meta GGA functionals, TD-DFT gradient, OOMP2, MP2 Hessian
   Martin Krupicka        : AUTO-CI
   Lucas Lang             : DCDCAS
   Dagmar Lenk            : GEPOL surface, SMD
   Dimitrios Liakos       : Extrapolation schemes; Compound Job, initial MDCI parallelization
   Dimitrios Manganas     : Further ROCIS development; embedding schemes
   Dimitrios Pantazis     : SARC Basis sets
   Taras Petrenko         : DFT Hessian,TD-DFT gradient, ASA, ECA, R-Raman, ABS, FL, XAS/XES, NRVS
   Peter Pinski           : DLPNO-MP2, DLPNO-MP2 Gradient
   Christoph Reimann      : Effective Core Potentials
   Marius Retegan         : Local ZFS, SOC
   Christoph Riplinger    : Optimizer, TS searches, QM/MM, DLPNO-CCSD(T), (RO)-DLPNO pert. Triples
   Tobias Risthaus        : Range-separated hybrids, TD-DFT gradient, RPA, STAB
   Michael Roemelt        : Original ROCIS implementation
   Masaaki Saitow         : Open-shell DLPNO-CCSD energy and density
   Barbara Sandhoefer     : DKH picture change effects
   Avijit Sen             : IP-ROCIS
   Kantharuban Sivalingam : CASSCF convergence, NEVPT2, FIC-MRCI
   Bernardo de Souza      : ESD, SOC TD-DFT
   Georgi Stoychev        : AutoAux, RI-MP2 NMR
   Willem Van den Heuvel  : Paramagnetic NMR
   Boris Wezisla          : Elementary symmetry handling
   Frank Wennmohs         : Technical directorship


 We gratefully acknowledge several colleagues who have allowed us to
 interface, adapt or use parts of their codes:
   Stefan Grimme, W. Hujo, H. Kruse,             : VdW corrections, initial TS optimization,
                  C. Bannwarth                     DFT functionals, gCP, sTDA/sTD-DF
   Ed Valeev, F. Pavosevic, A. Kumar             : LibInt (2-el integral package), F12 methods
   Garnet Chan, S. Sharma, J. Yang, R. Olivares  : DMRG
   Ulf Ekstrom                                   : XCFun DFT Library
   Mihaly Kallay                                 : mrcc  (arbitrary order and MRCC methods)
   Andreas Klamt, Michael Diedenhofen            : otool_cosmo (COSMO solvation model)
   Jiri Pittner, Ondrej Demel                    : Mk-CCSD
   Frank Weinhold                                : gennbo (NPA and NBO analysis)
   Christopher J. Cramer and Donald G. Truhlar   : smd solvation model
   Lars Goerigk                                  : TD-DFT with DH, B97 family of functionals
   V. Asgeirsson, H. Jonsson                     : NEB implementation
   FAccTs GmbH                                   : IRC, NEB, NEB-TS, Multilevel, MM, QM/MM, CI optimization
   S Lehtola, MJT Oliveira, MAL Marques          : LibXC Library


 Your calculation uses the libint2 library for the computation of 2-el integrals
 For citations please refer to: http://libint.valeyev.net

 Your ORCA version has been built with support for libXC version: 4.2.3
 For citations please refer to: https://tddft.org/programs/libxc/

 This ORCA versions uses:
   CBLAS   interface :  Fast vector & matrix operations
   LAPACKE interface :  Fast linear algebra routines
   SCALAPACK package :  Parallel linear algebra routines


Your calculation utilizes the atom-pairwise dispersion correction
with the zero-damping scheme (D30)
Cite in your paper:
S.Grimme, J.Antony, S.Ehrlich and H.Krieg, J.Chem.Phys., 132, (2010), 154104 
   

XCFun DFT library Copyright 2009-2010 Ulf Ekstrom and contributors.
See http://admol.org/xcfun for more information. This is free soft-
ware; see the source code for copying conditions. There is ABSOLUTELY
NO WARRANTY; not even for MERCHANTABILITY or FITNESS FOR A PARTICULAR
PURPOSE. For details see the documentation. Scientific users of this 
library should cite U. Ekstrom, L. Visscher, R. Bast, A. J. Thorvald-
sen and K. Ruud; J.Chem.Theor.Comp. 2010, DOI: 10.1021/ct100117s
XCFun Version 0.99 
----- Orbital basis set information -----
Your calculation utilizes the basis: def2-SVP
   F. Weigend and R. Ahlrichs, Phys. Chem. Chem. Phys. 7, 3297 (2005).

================================================================================
                                        WARNINGS
                       Please study these warnings very carefully!
================================================================================


INFO   : the flag for use of LIBINT has been found!

================================================================================
                                       INPUT FILE
================================================================================
NAME = config_3222.inp
|  1> ! wB97X-D3 SP def2-SVP
|  2> %pal
|  3> nprocs 16
|  4> end
|  5> 
|  6> * xyz 0 1
|  7> S 	 45.6394 	 19.7754 	 86.6469 	 
|  8> C 	 43.9955 	 20.3905 	 86.7796 	 
|  9> C 	 43.1405 	 19.5586 	 86.121 	 
| 10> C 	 43.856 	 18.4174 	 85.5025 	 
| 11> C 	 45.1935 	 18.4607 	 85.6666 	 
| 12> H 	 43.3933 	 17.5931 	 84.9721 	 
| 13> C 	 41.6754 	 19.7779 	 85.8851 	 
| 14> H 	 41.129 	 19.9637 	 86.8205 	 
| 15> H 	 41.3588 	 18.7028 	 85.5844 	 
| 16> C 	 41.3446 	 20.7576 	 84.7327 	 
| 17> H 	 41.5583 	 21.8053 	 84.967 	 
| 18> H 	 42.0026 	 20.4226 	 83.93 	 
| 19> C 	 39.897 	 20.7446 	 84.229 	 
| 20> H 	 39.5962 	 19.7807 	 83.8512 	 
| 21> H 	 39.2543 	 21.0389 	 84.9987 	 
| 22> H 	 39.7427 	 21.4474 	 83.3977 	 
| 23> S 	 47.7174 	 17.1242 	 86.1239 	 
| 24> C 	 48.2716 	 15.9173 	 84.9344 	 
| 25> C 	 47.1935 	 15.6562 	 84.1102 	 
| 26> C 	 46.0905 	 16.4232 	 84.2537 	 
| 27> C 	 46.1803 	 17.3989 	 85.2569 	 
| 28> H 	 47.3939 	 14.8201 	 83.4543 	 
| 29> C 	 44.9587 	 16.212 	 83.2399 	 
| 30> H 	 45.3952 	 16.135 	 82.2783 	 
| 31> H 	 44.3396 	 17.1471 	 83.0433 	 
| 32> C 	 43.9913 	 14.9507 	 83.4001 	 
| 33> H 	 43.5142 	 14.9147 	 84.3856 	 
| 34> H 	 44.6245 	 14.05 	 83.4638 	 
| 35> C 	 42.9644 	 14.7949 	 82.2916 	 
| 36> H 	 42.3752 	 15.7175 	 82.268 	 
| 37> H 	 42.4352 	 13.9138 	 82.4422 	 
| 38> H 	 43.4736 	 14.6563 	 81.3657 	 
| 39> H 	 43.7074 	 21.35 	 87.1883 	 
| 40> H 	 49.2812 	 15.4877 	 84.8547 	 
| 41> *
| 42> 
| 43>                          ****END OF INPUT****
================================================================================

                       ****************************
                       * Single Point Calculation *
                       ****************************

---------------------------------
CARTESIAN COORDINATES (ANGSTROEM)
---------------------------------
  S     45.639400   19.775400   86.646900
  C     43.995500   20.390500   86.779600
  C     43.140500   19.558600   86.121000
  C     43.856000   18.417400   85.502500
  C     45.193500   18.460700   85.666600
  H     43.393300   17.593100   84.972100
  C     41.675400   19.777900   85.885100
  H     41.129000   19.963700   86.820500
  H     41.358800   18.702800   85.584400
  C     41.344600   20.757600   84.732700
  H     41.558300   21.805300   84.967000
  H     42.002600   20.422600   83.930000
  C     39.897000   20.744600   84.229000
  H     39.596200   19.780700   83.851200
  H     39.254300   21.038900   84.998700
  H     39.742700   21.447400   83.397700
  S     47.717400   17.124200   86.123900
  C     48.271600   15.917300   84.934400
  C     47.193500   15.656200   84.110200
  C     46.090500   16.423200   84.253700
  C     46.180300   17.398900   85.256900
  H     47.393900   14.820100   83.454300
  C     44.958700   16.212000   83.239900
  H     45.395200   16.135000   82.278300
  H     44.339600   17.147100   83.043300
  C     43.991300   14.950700   83.400100
  H     43.514200   14.914700   84.385600
  H     44.624500   14.050000   83.463800
  C     42.964400   14.794900   82.291600
  H     42.375200   15.717500   82.268000
  H     42.435200   13.913800   82.442200
  H     43.473600   14.656300   81.365700
  H     43.707400   21.350000   87.188300
  H     49.281200   15.487700   84.854700

----------------------------
CARTESIAN COORDINATES (A.U.)
----------------------------
  NO LB      ZA    FRAG     MASS         X           Y           Z
   0 S    16.0000    0    32.060   86.245967   37.370090  163.738911
   1 C     6.0000    0    12.011   83.139446   38.532461  163.989678
   2 C     6.0000    0    12.011   81.523730   36.960398  162.745104
   3 C     6.0000    0    12.011   82.875829   34.803842  161.576309
   4 C     6.0000    0    12.011   85.403338   34.885667  161.886413
   5 H     1.0000    0     1.008   82.001453   33.246141  160.573998
   6 C     6.0000    0    12.011   78.755093   37.374815  162.299318
   7 H     1.0000    0     1.008   77.722546   37.725926  164.066968
   8 H     1.0000    0     1.008   78.156805   35.343170  161.731077
   9 C     6.0000    0    12.011   78.129971   39.226179  160.121598
  10 H     1.0000    0     1.008   78.533806   41.206045  160.564360
  11 H     1.0000    0     1.008   79.373411   38.593121  158.604714
  12 C     6.0000    0    12.011   75.394404   39.201613  159.169743
  13 H     1.0000    0     1.008   74.825974   37.380106  158.455804
  14 H     1.0000    0     1.008   74.179877   39.757759  160.624265
  15 H     1.0000    0     1.008   75.102819   40.529712  157.598813
  16 S    16.0000    0    32.060   90.172818   32.360048  162.750585
  17 C     6.0000    0    12.011   91.220104   30.079338  160.502755
  18 C     6.0000    0    12.011   89.182790   29.585930  158.945243
  19 C     6.0000    0    12.011   87.098422   31.035350  159.216419
  20 C     6.0000    0    12.011   87.268120   32.879156  161.112192
  21 H     1.0000    0     1.008   89.561491   28.005930  157.705772
  22 C     6.0000    0    12.011   84.959630   30.636240  157.300614
  23 H     1.0000    0     1.008   85.784496   30.490731  155.483454
  24 H     1.0000    0     1.008   83.789701   32.403323  156.929094
  25 C     6.0000    0    12.011   83.131509   28.252729  157.603349
  26 H     1.0000    0     1.008   82.229921   28.184698  159.465674
  27 H     1.0000    0     1.008   84.328084   26.550652  157.723724
  28 C     6.0000    0    12.011   81.190950   27.958309  155.508587
  29 H     1.0000    0     1.008   80.077523   29.701771  155.463990
  30 H     1.0000    0     1.008   80.190906   26.293271  155.793180
  31 H     1.0000    0     1.008   82.153198   27.696393  153.758890
  32 H     1.0000    0     1.008   82.595016   40.345653  164.762009
  33 H     1.0000    0     1.008   93.127972   29.267511  160.352144

--------------------------------
INTERNAL COORDINATES (ANGSTROEM)
--------------------------------
 S      0   0   0     0.000000000000     0.00000000     0.00000000
 C      1   0   0     1.760217176942     0.00000000     0.00000000
 C      2   1   0     1.362657906446   109.64644049     0.00000000
 C      3   2   1     1.482167311743   111.64453816   359.68787325
 C      4   3   2     1.348224740168   113.78962896   357.46131023
 H      4   3   2     1.083921556202   125.70842223   176.50255540
 C      3   2   1     1.500086434176   126.83927377   185.86662653
 H      7   3   2     1.099112259963   112.11166228   305.28462663
 H      7   3   2     1.160386168480    99.89140926   195.68299988
 C      7   3   2     1.548310850572   114.72216817    78.63473838
 H     10   7   3     1.094641251735   113.86599521   287.77714487
 H     10   7   3     1.090649480814   102.97558173    46.23078341
 C     10   7   3     1.532784541284   116.16772349   165.25549017
 H     13  10   7     1.078107921314   112.72082813   300.13552112
 H     13  10   7     1.045042520666   109.65749595    62.75315811
 H     13  10   7     1.099452600161   112.06081346   181.28742426
 S      5   4   3     2.892304747083   150.46888952   142.97587414
 C     17   5   4     1.782878431077   118.59206750    60.82532064
 C     18  17   5     1.381947343425   106.45768089   347.89026776
 C     19  18  17     1.351107046092   117.79271478     7.56569998
 C     20  19  18     1.402306945715   114.75169817   359.26152813
 H     19  18  17     1.081401026447   111.29960266   188.90873966
 C     20  19  18     1.534068812016   116.99759856   174.08853965
 H     23  20  19     1.058837008231   107.82045416   316.29341600
 H     23  20  19     1.138572957697   113.71632097   209.61473196
 C     23  20  19     1.597624639895   119.28574605    77.72268451
 H     26  23  20     1.095504751245   112.32491981    55.71562042
 H     26  23  20     1.102841974174   107.63228118   306.76408613
 C     26  23  20     1.519068629128   114.65400481   183.67469240
 H     29  26  23     1.094944911856   107.04208371   302.25919540
 H     29  26  23     1.038783042796   109.00114568   175.64951304
 H     29  26  23     1.065732335064   108.92469059    61.58899546
 H      2   1   3     1.081978534907   125.94734003   188.39622991
 H     18  17   5     1.100091091683   126.72435594   166.27295779

---------------------------
INTERNAL COORDINATES (A.U.)
---------------------------
 S      0   0   0     0.000000000000     0.00000000     0.00000000
 C      1   0   0     3.326328400643     0.00000000     0.00000000
 C      2   1   0     2.575050257406   109.64644049     0.00000000
 C      3   2   1     2.800890303845   111.64453816   359.68787325
 C      4   3   2     2.547775525894   113.78962896   357.46131023
 H      4   3   2     2.048314891876   125.70842223   176.50255540
 C      3   2   1     2.834752537804   126.83927377   185.86662653
 H      7   3   2     2.077021161765   112.11166228   305.28462663
 H      7   3   2     2.192812068018    99.89140926   195.68299988
 C      7   3   2     2.925883477760   114.72216817    78.63473838
 H     10   7   3     2.068572180672   113.86599521   287.77714487
 H     10   7   3     2.061028826842   102.97558173    46.23078341
 C     10   7   3     2.896543005335   116.16772349   165.25549017
 H     13  10   7     2.037328714095   112.72082813   300.13552112
 H     13  10   7     1.974844162362   109.65749595    62.75315811
 H     13  10   7     2.077664311531   112.06081346   181.28742426
 S      5   4   3     5.465663867828   150.46888952   142.97587414
 C     17   5   4     3.369151964811   118.59206750    60.82532064
 C     18  17   5     2.611502010574   106.45768089   347.89026776
 C     19  18  17     2.553222294726   117.79271478     7.56569998
 C     20  19  18     2.649976083097   114.75169817   359.26152813
 H     19  18  17     2.043551780926   111.29960266   188.90873966
 C     20  19  18     2.898969925300   116.99759856   174.08853965
 H     23  20  19     2.000911966018   107.82045416   316.29341600
 H     23  20  19     2.151591073537   113.71632097   209.61473196
 C     23  20  19     3.019073034206   119.28574605    77.72268451
 H     26  23  20     2.070203958262   112.32491981    55.71562042
 H     26  23  20     2.084069300182   107.63228118   306.76408613
 C     26  23  20     2.870623687683   114.65400481   183.67469240
 H     29  26  23     2.069146015139   107.04208371   302.25919540
 H     29  26  23     1.963015463445   109.00114568   175.64951304
 H     29  26  23     2.013942245335   108.92469059    61.58899546
 H      2   1   3     2.044643113756   125.94734003   188.39622991
 H     18  17   5     2.078870885647   126.72435594   166.27295779

---------------------
BASIS SET INFORMATION
---------------------
There are 3 groups of distinct atoms

 Group   1 Type S   : 10s7p1d contracted to 4s3p1d pattern {5311/511/1}
 Group   2 Type C   : 7s4p1d contracted to 3s2p1d pattern {511/31/1}
 Group   3 Type H   : 4s1p contracted to 2s1p pattern {31/1}

Atom   0S    basis set group =>   1
Atom   1C    basis set group =>   2
Atom   2C    basis set group =>   2
Atom   3C    basis set group =>   2
Atom   4C    basis set group =>   2
Atom   5H    basis set group =>   3
Atom   6C    basis set group =>   2
Atom   7H    basis set group =>   3
Atom   8H    basis set group =>   3
Atom   9C    basis set group =>   2
Atom  10H    basis set group =>   3
Atom  11H    basis set group =>   3
Atom  12C    basis set group =>   2
Atom  13H    basis set group =>   3
Atom  14H    basis set group =>   3
Atom  15H    basis set group =>   3
Atom  16S    basis set group =>   1
Atom  17C    basis set group =>   2
Atom  18C    basis set group =>   2
Atom  19C    basis set group =>   2
Atom  20C    basis set group =>   2
Atom  21H    basis set group =>   3
Atom  22C    basis set group =>   2
Atom  23H    basis set group =>   3
Atom  24H    basis set group =>   3
Atom  25C    basis set group =>   2
Atom  26H    basis set group =>   3
Atom  27H    basis set group =>   3
Atom  28C    basis set group =>   2
Atom  29H    basis set group =>   3
Atom  30H    basis set group =>   3
Atom  31H    basis set group =>   3
Atom  32H    basis set group =>   3
Atom  33H    basis set group =>   3


           ************************************************************
           *        Program running with 16 parallel MPI-processes    *
           *              working on a common directory               *
           ************************************************************
------------------------------------------------------------------------------
                           ORCA GTO INTEGRAL CALCULATION
------------------------------------------------------------------------------

                         BASIS SET STATISTICS AND STARTUP INFO

 # of primitive gaussian shells          ...  294
 # of primitive gaussian functions       ...  534
 # of contracted shells                  ...  154
 # of contracted basis functions         ...  322
 Highest angular momentum                ...    2
 Maximum contraction depth               ...    5
 Integral package used                   ... LIBINT
 Integral threshhold            Thresh   ...  1.000e-10
 Primitive cut-off              TCut     ...  1.000e-11


------------------------------ INTEGRAL EVALUATION ----------------------------


 * One electron integrals 
 Pre-screening matrix                    ... done
 Shell pair data                         ... done (   0.003 sec)



           ************************************************************
           *        Program running with 16 parallel MPI-processes    *
           *              working on a common directory               *
           ************************************************************
-------------------------------------------------------------------------------
                                 ORCA SCF
-------------------------------------------------------------------------------

------------
SCF SETTINGS
------------
Hamiltonian:
 Density Functional     Method          .... DFT(GTOs)
 Exchange Functional    Exchange        .... WB97X-D3
 Correlation Functional Correlation     .... WB97X-D3
 Gradients option       PostSCFGGA      .... off
 Hybrid DFT is turned on
   Fraction HF Exchange ScalHFX         ....  0.195728
   Scaling of DF-GGA-X  ScalDFX         ....  0.000000
   Scaling of DF-GGA-C  ScalDFC         ....  1.000000
   Scaling of DF-LDA-C  ScalLDAC        ....  1.000000
   Perturbative correction              ....  0.000000
   Density functional embedding theory  .... OFF
 Long-range corrected/Screened/Range-Separated Hybrid DFT is turned on
   Amount of maximum screened exact exchange              ....  0.804272
   Range separation parameter mu (erf(mu*r12)/r12)        ....  0.250000


General Settings:
 Integral files         IntName         .... config_3222
 Hartree-Fock type      HFTyp           .... RHF
 Total Charge           Charge          ....    0
 Multiplicity           Mult            ....    1
 Number of Electrons    NEL             ....  134
 Basis Dimension        Dim             ....  322
 Nuclear Repulsion      ENuc            ....   1266.5757143968 Eh

Convergence Acceleration:
 DIIS                   CNVDIIS         .... on
   Start iteration      DIISMaxIt       ....    12
   Startup error        DIISStart       ....  0.200000
   # of expansion vecs  DIISMaxEq       ....     5
   Bias factor          DIISBfac        ....   1.050
   Max. coefficient     DIISMaxC        ....  10.000
 Newton-Raphson         CNVNR           .... off
 SOSCF                  CNVSOSCF        .... on
   Start iteration      SOSCFMaxIt      ....   150
   Startup grad/error   SOSCFStart      ....  0.003300
 Level Shifting         CNVShift        .... on
   Level shift para.    LevelShift      ....    0.2500
   Turn off err/grad.   ShiftErr        ....    0.0010
 Zerner damping         CNVZerner       .... off
 Static damping         CNVDamp         .... on
   Fraction old density DampFac         ....    0.7000
   Max. Damping (<1)    DampMax         ....    0.9800
   Min. Damping (>=0)   DampMin         ....    0.0000
   Turn off err/grad.   DampErr         ....    0.1000
 Fernandez-Rico         CNVRico         .... off

SCF Procedure:
 Maximum # iterations   MaxIter         ....   125
 SCF integral mode      SCFMode         .... Direct
   Integral package                     .... LIBINT
 Reset frequency        DirectResetFreq ....    20
 Integral Threshold     Thresh          ....  1.000e-10 Eh
 Primitive CutOff       TCut            ....  1.000e-11 Eh

Convergence Tolerance:
 Convergence Check Mode ConvCheckMode   .... Total+1el-Energy
 Convergence forced     ConvForced      .... 0
 Energy Change          TolE            ....  1.000e-06 Eh
 1-El. energy change                    ....  1.000e-03 Eh
 Orbital Gradient       TolG            ....  5.000e-05
 Orbital Rotation angle TolX            ....  5.000e-05
 DIIS Error             TolErr          ....  1.000e-06


Diagonalization of the overlap matrix:
Smallest eigenvalue                        ... 5.688e-04
Time for diagonalization                   ...    0.015 sec
Threshold for overlap eigenvalues          ... 1.000e-08
Number of eigenvalues below threshold      ... 0
Time for construction of square roots      ...    0.023 sec
Total time needed                          ...    0.039 sec

-------------------
DFT GRID GENERATION
-------------------

General Integration Accuracy     IntAcc      ...  4.340
Radial Grid Type                 RadialGrid  ... Gauss-Chebyshev
Angular Grid (max. acc.)         AngularGrid ... Lebedev-110
Angular grid pruning method      GridPruning ... 3 (G Style)
Weight generation scheme         WeightScheme... Becke
Basis function cutoff            BFCut       ...    1.0000e-10
Integration weight cutoff        WCut        ...    1.0000e-14
Grids for H and He will be reduced by one unit

# of grid points (after initial pruning)     ...  41088 (   0.0 sec)
# of grid points (after weights+screening)   ...  37055 (   0.0 sec)
nearest neighbour list constructed           ...    0.0 sec
Grid point re-assignment to atoms done       ...    0.0 sec
Grid point division into batches done        ...    0.0 sec
Reduced shell lists constructed in    0.1 sec

Total number of grid points                  ...    37055
Total number of batches                      ...      596
Average number of points per batch           ...       62
Average number of grid points per atom       ...     1090
Average number of shells per batch           ...    72.79 (47.27%)
Average number of basis functions per batch  ...   144.79 (44.97%)
Average number of large shells per batch     ...    45.36 (62.31%)
Average number of large basis fcns per batch ...    95.05 (65.65%)
Maximum spatial batch extension              ...  13.75, 16.58, 24.73 au
Average spatial batch extension              ...   0.24,  0.26,  0.33 au

Time for grid setup =    0.184 sec

------------------------------
INITIAL GUESS: MODEL POTENTIAL
------------------------------
Loading Hartree-Fock densities                     ... done
Calculating cut-offs                               ... done
Setting up the integral package                    ... done
Initializing the effective Hamiltonian             ... done
Starting the Coulomb interaction                   ... done (   0.0 sec)
Reading the grid                                   ... done
Mapping shells                                     ... done
Starting the XC term evaluation                    ... done (   0.0 sec)
  promolecular density results
     # of electrons  =    133.984666323
     EX              =   -126.713157910
     EC              =     -4.615796991
     EX+EC           =   -131.328954901
Transforming the Hamiltonian                       ... done (   0.0 sec)
Diagonalizing the Hamiltonian                      ... done (   0.0 sec)
Back transforming the eigenvectors                 ... done (   0.0 sec)
Now organizing SCF variables                       ... done
                      ------------------
                      INITIAL GUESS DONE (   0.4 sec)
                      ------------------
--------------
SCF ITERATIONS
--------------
ITER       Energy         Delta-E        Max-DP      RMS-DP      [F,P]     Damp
               ***  Starting incremental Fock matrix formation  ***
  0  -1339.4189146906   0.000000000000 0.06798029  0.00156103  0.1696291 0.7000
  1  -1339.6060390731  -0.187124382502 0.04573817  0.00113935  0.1030287 0.7000
                               ***Turning on DIIS***
  2  -1339.6967307247  -0.090691651596 0.08029066  0.00214566  0.0540177 0.0000
  3  -1339.8338644644  -0.137133739722 0.04235288  0.00096404  0.0379980 0.0000
  4  -1339.8632079790  -0.029343514557 0.00815354  0.00019948  0.0082915 0.0000
                      *** Initiating the SOSCF procedure ***
                           *** Shutting down DIIS ***
                      *** Re-Reading the Fockian *** 
                      *** Removing any level shift *** 
ITER      Energy       Delta-E        Grad      Rot      Max-DP    RMS-DP
  5  -1339.86411541  -0.0009074270  0.001340  0.001340  0.002624  0.000095
               *** Restarting incremental Fock matrix formation ***
  6  -1339.86430482  -0.0001894155  0.001219  0.003425  0.002139  0.000063
  7  -1339.86436755  -0.0000627253  0.000816  0.004769  0.002290  0.000059
  8  -1339.86438375  -0.0000162035  0.000422  0.000849  0.000761  0.000018
  9  -1339.86438806  -0.0000043066  0.000148  0.000351  0.000304  0.000009
 10  -1339.86438842  -0.0000003667  0.000080  0.000242  0.000153  0.000004
                 **** Energy Check signals convergence ****
              ***Rediagonalizing the Fockian in SOSCF/NRSCF***

               *****************************************************
               *                     SUCCESS                       *
               *           SCF CONVERGED AFTER  11 CYCLES          *
               *****************************************************

Setting up the final grid:

General Integration Accuracy     IntAcc      ...  4.670
Radial Grid Type                 RadialGrid  ... Gauss-Chebyshev
Angular Grid (max. acc.)         AngularGrid ... Lebedev-302
Angular grid pruning method      GridPruning ... 3 (G Style)
Weight generation scheme         WeightScheme... Becke
Basis function cutoff            BFCut       ...    1.0000e-10
Integration weight cutoff        WCut        ...    1.0000e-14
Grids for H and He will be reduced by one unit

# of grid points (after initial pruning)     ... 161752 (   0.0 sec)
# of grid points (after weights+screening)   ... 143149 (   0.1 sec)
nearest neighbour list constructed           ...    0.0 sec
Grid point re-assignment to atoms done       ...    0.0 sec
Grid point division into batches done        ...    0.5 sec
Reduced shell lists constructed in    0.6 sec

Total number of grid points                  ...   143149
Total number of batches                      ...     2256
Average number of points per batch           ...       63
Average number of grid points per atom       ...     4210
Average number of shells per batch           ...    64.95 (42.18%)
Average number of basis functions per batch  ...   129.78 (40.30%)
Average number of large shells per batch     ...    39.88 (61.40%)
Average number of large basis fcns per batch ...    82.89 (63.87%)
Maximum spatial batch extension              ...  12.63, 13.58, 15.90 au
Average spatial batch extension              ...   0.15,  0.15,  0.15 au

Final grid set up in    1.0 sec
Final integration                            ... done (   0.3 sec)
Change in XC energy                          ...     0.007287784
Integrated number of electrons               ...   134.000250646
Previous integrated no of electrons          ...   133.997682139

----------------
TOTAL SCF ENERGY
----------------

Total Energy       :        -1339.85710091 Eh          -36459.36527 eV

Components:
Nuclear Repulsion  :         1266.57571440 Eh           34465.27737 eV
Electronic Energy  :        -2606.43281530 Eh          -70924.64264 eV
One Electron Energy:        -4349.62757235 Eh         -118359.38352 eV
Two Electron Energy:         1743.19475705 Eh           47434.74087 eV

Virial components:
Potential Energy   :        -2671.37496119 Eh          -72691.80827 eV
Kinetic Energy     :         1331.51786029 Eh           36232.44300 eV
Virial Ratio       :            2.00626296


DFT components:
N(Alpha)           :       67.000125322939 electrons
N(Beta)            :       67.000125322939 electrons
N(Total)           :      134.000250645879 electrons
E(XC)              :      -94.252856471167 Eh       
DFET-embed. en.    :        0.000000000000 Eh       

---------------
SCF CONVERGENCE
---------------

  Last Energy change         ...   -2.6624e-07  Tolerance :   1.0000e-06
  Last MAX-Density change    ...    4.1903e-05  Tolerance :   1.0000e-05
  Last RMS-Density change    ...    7.2747e-07  Tolerance :   1.0000e-06
  Last Orbital Gradient      ...    7.1821e-06  Tolerance :   5.0000e-05
  Last Orbital Rotation      ...    1.9094e-05  Tolerance :   5.0000e-05

             **** THE GBW FILE WAS UPDATED (config_3222.gbw) ****
             **** DENSITY FILE WAS UPDATED (config_3222.scfp) ****
             **** ENERGY FILE WAS UPDATED (config_3222.en.tmp) ****
             **** THE GBW FILE WAS UPDATED (config_3222.gbw) ****
             **** DENSITY FILE WAS UPDATED (config_3222.scfp) ****
----------------
ORBITAL ENERGIES
----------------

  NO   OCC          E(Eh)            E(eV) 
   0   2.0000     -88.967361     -2420.9250 
   1   2.0000     -88.963672     -2420.8246 
   2   2.0000     -10.339044      -281.3397 
   3   2.0000     -10.330160      -281.0979 
   4   2.0000     -10.322087      -280.8783 
   5   2.0000     -10.313713      -280.6504 
   6   2.0000     -10.303072      -280.3608 
   7   2.0000     -10.302306      -280.3400 
   8   2.0000     -10.299916      -280.2750 
   9   2.0000     -10.297825      -280.2181 
  10   2.0000     -10.292739      -280.0797 
  11   2.0000     -10.291996      -280.0595 
  12   2.0000     -10.289657      -279.9958 
  13   2.0000     -10.287848      -279.9466 
  14   2.0000     -10.274755      -279.5903 
  15   2.0000     -10.274034      -279.5707 
  16   2.0000      -8.080849      -219.8911 
  17   2.0000      -8.079310      -219.8492 
  18   2.0000      -6.039431      -164.3413 
  19   2.0000      -6.037933      -164.3005 
  20   2.0000      -6.035443      -164.2328 
  21   2.0000      -6.033665      -164.1844 
  22   2.0000      -6.031676      -164.1303 
  23   2.0000      -6.029898      -164.0819 
  24   2.0000      -1.009189       -27.4614 
  25   2.0000      -0.988588       -26.9008 
  26   2.0000      -0.911420       -24.8010 
  27   2.0000      -0.903145       -24.5758 
  28   2.0000      -0.869408       -23.6578 
  29   2.0000      -0.857422       -23.3316 
  30   2.0000      -0.846166       -23.0253 
  31   2.0000      -0.817920       -22.2567 
  32   2.0000      -0.782215       -21.2852 
  33   2.0000      -0.775368       -21.0988 
  34   2.0000      -0.705693       -19.2029 
  35   2.0000      -0.703388       -19.1402 
  36   2.0000      -0.697280       -18.9739 
  37   2.0000      -0.660543       -17.9743 
  38   2.0000      -0.639586       -17.4040 
  39   2.0000      -0.620891       -16.8953 
  40   2.0000      -0.598253       -16.2793 
  41   2.0000      -0.570063       -15.5122 
  42   2.0000      -0.566181       -15.4066 
  43   2.0000      -0.557520       -15.1709 
  44   2.0000      -0.535267       -14.5654 
  45   2.0000      -0.525752       -14.3064 
  46   2.0000      -0.520497       -14.1635 
  47   2.0000      -0.516986       -14.0679 
  48   2.0000      -0.507268       -13.8035 
  49   2.0000      -0.502395       -13.6709 
  50   2.0000      -0.494902       -13.4670 
  51   2.0000      -0.481888       -13.1128 
  52   2.0000      -0.470263       -12.7965 
  53   2.0000      -0.465672       -12.6716 
  54   2.0000      -0.457525       -12.4499 
  55   2.0000      -0.450781       -12.2664 
  56   2.0000      -0.443910       -12.0794 
  57   2.0000      -0.437248       -11.8981 
  58   2.0000      -0.432111       -11.7583 
  59   2.0000      -0.425477       -11.5778 
  60   2.0000      -0.421744       -11.4762 
  61   2.0000      -0.414903       -11.2901 
  62   2.0000      -0.408041       -11.1034 
  63   2.0000      -0.359331        -9.7779 
  64   2.0000      -0.335634        -9.1331 
  65   2.0000      -0.327119        -8.9013 
  66   2.0000      -0.289947        -7.8899 
  67   0.0000       0.020329         0.5532 
  68   0.0000       0.085595         2.3292 
  69   0.0000       0.104464         2.8426 
  70   0.0000       0.124035         3.3752 
  71   0.0000       0.126785         3.4500 
  72   0.0000       0.140420         3.8210 
  73   0.0000       0.152685         4.1548 
  74   0.0000       0.154186         4.1956 
  75   0.0000       0.167478         4.5573 
  76   0.0000       0.169867         4.6223 
  77   0.0000       0.176689         4.8080 
  78   0.0000       0.181875         4.9491 
  79   0.0000       0.195050         5.3076 
  80   0.0000       0.197218         5.3666 
  81   0.0000       0.205905         5.6030 
  82   0.0000       0.208921         5.6850 
  83   0.0000       0.210325         5.7232 
  84   0.0000       0.225714         6.1420 
  85   0.0000       0.228299         6.2123 
  86   0.0000       0.230240         6.2651 
  87   0.0000       0.235863         6.4182 
  88   0.0000       0.241552         6.5730 
  89   0.0000       0.247311         6.7297 
  90   0.0000       0.249927         6.8009 
  91   0.0000       0.257226         6.9995 
  92   0.0000       0.274721         7.4755 
  93   0.0000       0.295420         8.0388 
  94   0.0000       0.310310         8.4440 
  95   0.0000       0.317323         8.6348 
  96   0.0000       0.325805         8.8656 
  97   0.0000       0.329530         8.9670 
  98   0.0000       0.340698         9.2709 
  99   0.0000       0.369067        10.0428 
 100   0.0000       0.380612        10.3570 
 101   0.0000       0.404293        11.0014 
 102   0.0000       0.409250        11.1363 
 103   0.0000       0.418486        11.3876 
 104   0.0000       0.436444        11.8762 
 105   0.0000       0.447077        12.1656 
 106   0.0000       0.454640        12.3714 
 107   0.0000       0.476693        12.9715 
 108   0.0000       0.489450        13.3186 
 109   0.0000       0.494836        13.4652 
 110   0.0000       0.501153        13.6371 
 111   0.0000       0.504310        13.7230 
 112   0.0000       0.518825        14.1179 
 113   0.0000       0.525624        14.3030 
 114   0.0000       0.527004        14.3405 
 115   0.0000       0.533379        14.5140 
 116   0.0000       0.540518        14.7082 
 117   0.0000       0.548496        14.9253 
 118   0.0000       0.566815        15.4238 
 119   0.0000       0.579918        15.7804 
 120   0.0000       0.584717        15.9110 
 121   0.0000       0.595848        16.2139 
 122   0.0000       0.603366        16.4184 
 123   0.0000       0.612036        16.6543 
 124   0.0000       0.613416        16.6919 
 125   0.0000       0.615850        16.7581 
 126   0.0000       0.630644        17.1607 
 127   0.0000       0.642561        17.4850 
 128   0.0000       0.652378        17.7521 
 129   0.0000       0.662154        18.0181 
 130   0.0000       0.664199        18.0738 
 131   0.0000       0.676031        18.3957 
 132   0.0000       0.684363        18.6225 
 133   0.0000       0.695520        18.9261 
 134   0.0000       0.702851        19.1256 
 135   0.0000       0.707303        19.2467 
 136   0.0000       0.713084        19.4040 
 137   0.0000       0.723535        19.6884 
 138   0.0000       0.731663        19.9096 
 139   0.0000       0.737133        20.0584 
 140   0.0000       0.740024        20.1371 
 141   0.0000       0.743947        20.2438 
 142   0.0000       0.747352        20.3365 
 143   0.0000       0.756304        20.5801 
 144   0.0000       0.761271        20.7152 
 145   0.0000       0.771402        20.9909 
 146   0.0000       0.775574        21.1044 
 147   0.0000       0.780083        21.2271 
 148   0.0000       0.783572        21.3221 
 149   0.0000       0.787380        21.4257 
 150   0.0000       0.789828        21.4923 
 151   0.0000       0.791202        21.5297 
 152   0.0000       0.796448        21.6725 
 153   0.0000       0.799895        21.7663 
 154   0.0000       0.805244        21.9118 
 155   0.0000       0.808433        21.9986 
 156   0.0000       0.811251        22.0753 
 157   0.0000       0.815973        22.2037 
 158   0.0000       0.819004        22.2862 
 159   0.0000       0.820446        22.3255 
 160   0.0000       0.829455        22.5706 
 161   0.0000       0.831036        22.6136 
 162   0.0000       0.839302        22.8386 
 163   0.0000       0.840819        22.8799 
 164   0.0000       0.848379        23.0856 
 165   0.0000       0.856406        23.3040 
 166   0.0000       0.876622        23.8541 
 167   0.0000       0.887474        24.1494 
 168   0.0000       0.900122        24.4936 
 169   0.0000       0.907893        24.7050 
 170   0.0000       0.918143        24.9839 
 171   0.0000       0.928487        25.2654 
 172   0.0000       0.941201        25.6114 
 173   0.0000       0.948501        25.8100 
 174   0.0000       0.957318        26.0499 
 175   0.0000       0.973450        26.4889 
 176   0.0000       0.989063        26.9138 
 177   0.0000       0.998697        27.1759 
 178   0.0000       1.017789        27.6954 
 179   0.0000       1.056292        28.7432 
 180   0.0000       1.074615        29.2418 
 181   0.0000       1.083022        29.4705 
 182   0.0000       1.089237        29.6397 
 183   0.0000       1.102903        30.0115 
 184   0.0000       1.114856        30.3368 
 185   0.0000       1.130838        30.7717 
 186   0.0000       1.151775        31.3414 
 187   0.0000       1.174746        31.9665 
 188   0.0000       1.183286        32.1989 
 189   0.0000       1.189640        32.3717 
 190   0.0000       1.203250        32.7421 
 191   0.0000       1.226653        33.3789 
 192   0.0000       1.255023        34.1509 
 193   0.0000       1.267634        34.4941 
 194   0.0000       1.292731        35.1770 
 195   0.0000       1.304490        35.4970 
 196   0.0000       1.331341        36.2276 
 197   0.0000       1.335805        36.3491 
 198   0.0000       1.374343        37.3978 
 199   0.0000       1.385549        37.7027 
 200   0.0000       1.393437        37.9173 
 201   0.0000       1.406668        38.2774 
 202   0.0000       1.415457        38.5165 
 203   0.0000       1.434648        39.0387 
 204   0.0000       1.457970        39.6734 
 205   0.0000       1.469740        39.9937 
 206   0.0000       1.488809        40.5126 
 207   0.0000       1.497830        40.7580 
 208   0.0000       1.515481        41.2383 
 209   0.0000       1.563417        42.5427 
 210   0.0000       1.581157        43.0255 
 211   0.0000       1.605722        43.6939 
 212   0.0000       1.627018        44.2734 
 213   0.0000       1.632196        44.4143 
 214   0.0000       1.635270        44.4980 
 215   0.0000       1.658435        45.1283 
 216   0.0000       1.667371        45.3715 
 217   0.0000       1.689387        45.9705 
 218   0.0000       1.732924        47.1553 
 219   0.0000       1.744422        47.4681 
 220   0.0000       1.779856        48.4323 
 221   0.0000       1.792094        48.7653 
 222   0.0000       1.799003        48.9534 
 223   0.0000       1.811061        49.2815 
 224   0.0000       1.812265        49.3142 
 225   0.0000       1.826685        49.7066 
 226   0.0000       1.834452        49.9180 
 227   0.0000       1.840415        50.0803 
 228   0.0000       1.847108        50.2624 
 229   0.0000       1.854140        50.4537 
 230   0.0000       1.868142        50.8347 
 231   0.0000       1.879130        51.1337 
 232   0.0000       1.884164        51.2707 
 233   0.0000       1.887095        51.3505 
 234   0.0000       1.898871        51.6709 
 235   0.0000       1.908602        51.9357 
 236   0.0000       1.915241        52.1164 
 237   0.0000       1.924236        52.3611 
 238   0.0000       1.927830        52.4589 
 239   0.0000       1.931845        52.5682 
 240   0.0000       1.937297        52.7165 
 241   0.0000       1.950634        53.0794 
 242   0.0000       1.959044        53.3083 
 243   0.0000       1.969835        53.6019 
 244   0.0000       1.978669        53.8423 
 245   0.0000       1.993474        54.2452 
 246   0.0000       2.011246        54.7288 
 247   0.0000       2.020381        54.9774 
 248   0.0000       2.024021        55.0764 
 249   0.0000       2.029576        55.2276 
 250   0.0000       2.034695        55.3669 
 251   0.0000       2.042887        55.5898 
 252   0.0000       2.052033        55.8387 
 253   0.0000       2.070238        56.3340 
 254   0.0000       2.084485        56.7217 
 255   0.0000       2.088767        56.8382 
 256   0.0000       2.104026        57.2535 
 257   0.0000       2.121335        57.7245 
 258   0.0000       2.135858        58.1197 
 259   0.0000       2.142064        58.2885 
 260   0.0000       2.156415        58.6790 
 261   0.0000       2.174134        59.1612 
 262   0.0000       2.187289        59.5191 
 263   0.0000       2.201875        59.9161 
 264   0.0000       2.216307        60.3088 
 265   0.0000       2.235818        60.8397 
 266   0.0000       2.258700        61.4624 
 267   0.0000       2.263878        61.6033 
 268   0.0000       2.287751        62.2529 
 269   0.0000       2.303455        62.6802 
 270   0.0000       2.327779        63.3421 
 271   0.0000       2.343607        63.7728 
 272   0.0000       2.393956        65.1428 
 273   0.0000       2.403873        65.4127 
 274   0.0000       2.416320        65.7514 
 275   0.0000       2.424693        65.9792 
 276   0.0000       2.452871        66.7460 
 277   0.0000       2.460693        66.9589 
 278   0.0000       2.488209        67.7076 
 279   0.0000       2.493457        67.8504 
 280   0.0000       2.503207        68.1157 
 281   0.0000       2.505159        68.1688 
 282   0.0000       2.517057        68.4926 
 283   0.0000       2.535537        68.9955 
 284   0.0000       2.539430        69.1014 
 285   0.0000       2.544976        69.2523 
 286   0.0000       2.571050        69.9618 
 287   0.0000       2.594058        70.5879 
 288   0.0000       2.613243        71.1100 
 289   0.0000       2.615182        71.1627 
 290   0.0000       2.624815        71.4248 
 291   0.0000       2.654474        72.2319 
 292   0.0000       2.670360        72.6642 
 293   0.0000       2.694003        73.3076 
 294   0.0000       2.698591        73.4324 
 295   0.0000       2.723928        74.1218 
 296   0.0000       2.743197        74.6462 
 297   0.0000       2.773615        75.4739 
 298   0.0000       2.786924        75.8360 
 299   0.0000       2.804173        76.3054 
 300   0.0000       2.837014        77.1991 
 301   0.0000       2.867304        78.0233 
 302   0.0000       2.901240        78.9468 
 303   0.0000       2.951323        80.3096 
 304   0.0000       2.954639        80.3998 
 305   0.0000       2.991567        81.4047 
 306   0.0000       2.997826        81.5750 
 307   0.0000       3.009986        81.9059 
 308   0.0000       3.019812        82.1733 
 309   0.0000       3.040958        82.7487 
 310   0.0000       3.061508        83.3079 
 311   0.0000       3.096638        84.2638 
 312   0.0000       3.105712        84.5107 
 313   0.0000       3.138924        85.4145 
 314   0.0000       3.146716        85.6265 
 315   0.0000       3.166954        86.1772 
 316   0.0000       3.183595        86.6300 
 317   0.0000       3.195326        86.9492 
 318   0.0000       3.224606        87.7460 
 319   0.0000       3.275375        89.1275 
 320   0.0000       3.387002        92.1650 
 321   0.0000       3.454590        94.0042 

                    ********************************
                    * MULLIKEN POPULATION ANALYSIS *
                    ********************************

-----------------------
MULLIKEN ATOMIC CHARGES
-----------------------
   0 S :    0.095685
   1 C :   -0.110783
   2 C :   -0.084089
   3 C :   -0.019845
   4 C :   -0.095942
   5 H :    0.010758
   6 C :    0.027063
   7 H :    0.036388
   8 H :    0.026929
   9 C :   -0.063162
  10 H :    0.032199
  11 H :    0.028952
  12 C :   -0.022081
  13 H :    0.021822
  14 H :    0.019987
  15 H :    0.034274
  16 S :    0.092700
  17 C :   -0.123337
  18 C :   -0.037760
  19 C :    0.016244
  20 C :   -0.118288
  21 H :    0.019184
  22 C :    0.009288
  23 H :    0.010449
  24 H :    0.027283
  25 C :   -0.092727
  26 H :    0.028094
  27 H :    0.018235
  28 C :    0.011074
  29 H :    0.035025
  30 H :    0.026259
  31 H :    0.019108
  32 H :    0.047487
  33 H :    0.073530
Sum of atomic charges:    0.0000000

--------------------------------
MULLIKEN REDUCED ORBITAL CHARGES
--------------------------------
  0 S s       :     5.844503  s :     5.844503
      pz      :     3.462411  p :     9.947454
      px      :     3.267079
      py      :     3.217965
      dz2     :     0.020019  d :     0.112358
      dxz     :     0.016494
      dyz     :     0.022219
      dx2y2   :     0.029928
      dxy     :     0.023698
  1 C s       :     3.188552  s :     3.188552
      pz      :     1.082259  p :     2.888127
      px      :     0.849237
      py      :     0.956631
      dz2     :     0.004900  d :     0.034104
      dxz     :     0.006294
      dyz     :     0.004223
      dx2y2   :     0.009704
      dxy     :     0.008982
  2 C s       :     3.083313  s :     3.083313
      pz      :     0.987421  p :     2.956662
      px      :     0.987187
      py      :     0.982055
      dz2     :     0.006835  d :     0.044115
      dxz     :     0.009021
      dyz     :     0.005328
      dx2y2   :     0.009993
      dxy     :     0.012937
  3 C s       :     3.205829  s :     3.205829
      pz      :     0.981127  p :     2.780264
      px      :     0.908679
      py      :     0.890458
      dz2     :     0.003266  d :     0.033752
      dxz     :     0.007710
      dyz     :     0.004272
      dx2y2   :     0.009886
      dxy     :     0.008618
  4 C s       :     3.044007  s :     3.044007
      pz      :     1.022852  p :     3.005739
      px      :     0.974727
      py      :     1.008161
      dz2     :     0.006599  d :     0.046196
      dxz     :     0.009367
      dyz     :     0.006457
      dx2y2   :     0.011452
      dxy     :     0.012321
  5 H s       :     0.964701  s :     0.964701
      pz      :     0.008057  p :     0.024541
      px      :     0.005513
      py      :     0.010971
  6 C s       :     3.004706  s :     3.004706
      pz      :     0.997428  p :     2.933436
      px      :     0.944673
      py      :     0.991335
      dz2     :     0.007925  d :     0.034795
      dxz     :     0.007751
      dyz     :     0.005096
      dx2y2   :     0.009367
      dxy     :     0.004656
  7 H s       :     0.941305  s :     0.941305
      pz      :     0.011152  p :     0.022307
      px      :     0.006348
      py      :     0.004807
  8 H s       :     0.952108  s :     0.952108
      pz      :     0.004285  p :     0.020963
      px      :     0.004762
      py      :     0.011917
  9 C s       :     3.057239  s :     3.057239
      pz      :     0.988813  p :     2.970005
      px      :     0.993404
      py      :     0.987788
      dz2     :     0.005849  d :     0.035919
      dxz     :     0.009070
      dyz     :     0.006315
      dx2y2   :     0.009865
      dxy     :     0.004820
 10 H s       :     0.945306  s :     0.945306
      pz      :     0.004401  p :     0.022495
      px      :     0.004877
      py      :     0.013217
 11 H s       :     0.948424  s :     0.948424
      pz      :     0.009572  p :     0.022625
      px      :     0.007635
      py      :     0.005417
 12 C s       :     2.983047  s :     2.983047
      pz      :     1.007893  p :     3.009894
      px      :     0.979050
      py      :     1.022951
      dz2     :     0.002995  d :     0.029140
      dxz     :     0.008031
      dyz     :     0.006734
      dx2y2   :     0.006764
      dxy     :     0.004615
 13 H s       :     0.953594  s :     0.953594
      pz      :     0.006547  p :     0.024584
      px      :     0.004936
      py      :     0.013101
 14 H s       :     0.954145  s :     0.954145
      pz      :     0.010763  p :     0.025868
      px      :     0.008504
      py      :     0.006601
 15 H s       :     0.942188  s :     0.942188
      pz      :     0.010454  p :     0.023538
      px      :     0.004156
      py      :     0.008929
 16 S s       :     5.849753  s :     5.849753
      pz      :     3.399839  p :     9.957367
      px      :     3.140469
      py      :     3.417058
      dz2     :     0.011752  d :     0.100180
      dxz     :     0.027920
      dyz     :     0.021412
      dx2y2   :     0.026064
      dxy     :     0.013033
 17 C s       :     3.186302  s :     3.186302
      pz      :     0.954781  p :     2.903377
      px      :     0.950973
      py      :     0.997623
      dz2     :     0.007302  d :     0.033658
      dxz     :     0.006593
      dyz     :     0.006451
      dx2y2   :     0.007181
      dxy     :     0.006131
 18 C s       :     3.173397  s :     3.173397
      pz      :     0.959630  p :     2.825954
      px      :     0.940283
      py      :     0.926042
      dz2     :     0.005110  d :     0.038409
      dxz     :     0.009210
      dyz     :     0.005752
      dx2y2   :     0.009233
      dxy     :     0.009104
 19 C s       :     3.025790  s :     3.025790
      pz      :     0.993860  p :     2.913003
      px      :     0.940431
      py      :     0.978712
      dz2     :     0.009665  d :     0.044964
      dxz     :     0.009455
      dyz     :     0.006966
      dx2y2   :     0.009517
      dxy     :     0.009360
 20 C s       :     3.062503  s :     3.062503
      pz      :     0.992461  p :     3.015290
      px      :     0.971658
      py      :     1.051171
      dz2     :     0.007419  d :     0.040495
      dxz     :     0.008998
      dyz     :     0.007364
      dx2y2   :     0.008954
      dxy     :     0.007760
 21 H s       :     0.956246  s :     0.956246
      pz      :     0.008999  p :     0.024570
      px      :     0.004202
      py      :     0.011369
 22 C s       :     2.999534  s :     2.999534
      pz      :     0.996448  p :     2.957779
      px      :     0.967885
      py      :     0.993446
      dz2     :     0.008439  d :     0.033399
      dxz     :     0.008804
      dyz     :     0.002572
      dx2y2   :     0.005242
      dxy     :     0.008342
 23 H s       :     0.964669  s :     0.964669
      pz      :     0.012775  p :     0.024882
      px      :     0.006407
      py      :     0.005700
 24 H s       :     0.951247  s :     0.951247
      pz      :     0.004711  p :     0.021470
      px      :     0.006478
      py      :     0.010281
 25 C s       :     3.068297  s :     3.068297
      pz      :     1.020868  p :     2.988567
      px      :     0.983880
      py      :     0.983819
      dz2     :     0.009613  d :     0.035863
      dxz     :     0.008654
      dyz     :     0.002696
      dx2y2   :     0.004675
      dxy     :     0.010225
 26 H s       :     0.949681  s :     0.949681
      pz      :     0.011852  p :     0.022225
      px      :     0.005901
      py      :     0.004471
 27 H s       :     0.959358  s :     0.959358
      pz      :     0.004752  p :     0.022407
      px      :     0.007471
      py      :     0.010184
 28 C s       :     2.963559  s :     2.963559
      pz      :     0.993559  p :     2.995976
      px      :     1.005016
      py      :     0.997401
      dz2     :     0.008312  d :     0.029392
      dxz     :     0.007580
      dyz     :     0.001892
      dx2y2   :     0.003251
      dxy     :     0.008357
 29 H s       :     0.941280  s :     0.941280
      pz      :     0.004725  p :     0.023695
      px      :     0.007495
      py      :     0.011474
 30 H s       :     0.947441  s :     0.947441
      pz      :     0.006022  p :     0.026300
      px      :     0.008076
      py      :     0.012202
 31 H s       :     0.955635  s :     0.955635
      pz      :     0.012244  p :     0.025257
      px      :     0.007279
      py      :     0.005734
 32 H s       :     0.928176  s :     0.928176
      pz      :     0.006804  p :     0.024337
      px      :     0.003768
      py      :     0.013766
 33 H s       :     0.903327  s :     0.903327
      pz      :     0.003727  p :     0.023142
      px      :     0.013603
      py      :     0.005813


                     *******************************
                     * LOEWDIN POPULATION ANALYSIS *
                     *******************************

----------------------
LOEWDIN ATOMIC CHARGES
----------------------
   0 S :    0.414190
   1 C :   -0.189515
   2 C :   -0.062461
   3 C :   -0.072302
   4 C :   -0.198180
   5 H :    0.029887
   6 C :   -0.040567
   7 H :    0.029393
   8 H :    0.038359
   9 C :   -0.038399
  10 H :    0.025001
  11 H :    0.026546
  12 C :   -0.059736
  13 H :    0.020720
  14 H :    0.016794
  15 H :    0.030569
  16 S :    0.380777
  17 C :   -0.179785
  18 C :   -0.074238
  19 C :   -0.068819
  20 C :   -0.174287
  21 H :    0.034485
  22 C :   -0.036989
  23 H :    0.024056
  24 H :    0.032306
  25 C :   -0.041928
  26 H :    0.021040
  27 H :    0.021916
  28 C :   -0.053475
  29 H :    0.028594
  30 H :    0.022186
  31 H :    0.022571
  32 H :    0.031518
  33 H :    0.039773

-------------------------------
LOEWDIN REDUCED ORBITAL CHARGES
-------------------------------
  0 S s       :     5.482630  s :     5.482630
      pz      :     3.453579  p :     9.963338
      px      :     3.290181
      py      :     3.219578
      dz2     :     0.023719  d :     0.139843
      dxz     :     0.018874
      dyz     :     0.030123
      dx2y2   :     0.037439
      dxy     :     0.029687
  1 C s       :     2.926236  s :     2.926236
      pz      :     1.106592  p :     3.181662
      px      :     1.001729
      py      :     1.073341
      dz2     :     0.009010  d :     0.081617
      dxz     :     0.014779
      dyz     :     0.009800
      dx2y2   :     0.025287
      dxy     :     0.022740
  2 C s       :     2.866312  s :     2.866312
      pz      :     1.003431  p :     3.087499
      px      :     1.050771
      py      :     1.033297
      dz2     :     0.014509  d :     0.108650
      dxz     :     0.021483
      dyz     :     0.013281
      dx2y2   :     0.026255
      dxy     :     0.033123
  3 C s       :     2.868753  s :     2.868753
      pz      :     1.030130  p :     3.114482
      px      :     1.054769
      py      :     1.029583
      dz2     :     0.007432  d :     0.089067
      dxz     :     0.018888
      dyz     :     0.009711
      dx2y2   :     0.027554
      dxy     :     0.025482
  4 C s       :     2.899409  s :     2.899409
      pz      :     1.048067  p :     3.188590
      px      :     1.103556
      py      :     1.036967
      dz2     :     0.014579  d :     0.110181
      dxz     :     0.020295
      dyz     :     0.014071
      dx2y2   :     0.029921
      dxy     :     0.031315
  5 H s       :     0.898405  s :     0.898405
      pz      :     0.023355  p :     0.071708
      px      :     0.016342
      py      :     0.032011
  6 C s       :     2.845199  s :     2.845199
      pz      :     1.050381  p :     3.108719
      px      :     1.020504
      py      :     1.037835
      dz2     :     0.018285  d :     0.086649
      dxz     :     0.019005
      dyz     :     0.013767
      dx2y2   :     0.024183
      dxy     :     0.011411
  7 H s       :     0.904111  s :     0.904111
      pz      :     0.033315  p :     0.066496
      px      :     0.019418
      py      :     0.013762
  8 H s       :     0.904983  s :     0.904983
      pz      :     0.011514  p :     0.056659
      px      :     0.012407
      py      :     0.032738
  9 C s       :     2.837255  s :     2.837255
      pz      :     1.038233  p :     3.113806
      px      :     1.034446
      py      :     1.041127
      dz2     :     0.013084  d :     0.087338
      dxz     :     0.022025
      dyz     :     0.017061
      dx2y2   :     0.025038
      dxy     :     0.010131
 10 H s       :     0.908679  s :     0.908679
      pz      :     0.013619  p :     0.066320
      px      :     0.014735
      py      :     0.037966
 11 H s       :     0.906208  s :     0.906208
      pz      :     0.028477  p :     0.067246
      px      :     0.023491
      py      :     0.015278
 12 C s       :     2.820173  s :     2.820173
      pz      :     1.063553  p :     3.165368
      px      :     1.030713
      py      :     1.071102
      dz2     :     0.007792  d :     0.074195
      dxz     :     0.019966
      dyz     :     0.017857
      dx2y2   :     0.018852
      dxy     :     0.009728
 13 H s       :     0.911018  s :     0.911018
      pz      :     0.017011  p :     0.068263
      px      :     0.016004
      py      :     0.035248
 14 H s       :     0.908400  s :     0.908400
      pz      :     0.030168  p :     0.074806
      px      :     0.026634
      py      :     0.018005
 15 H s       :     0.905001  s :     0.905001
      pz      :     0.027675  p :     0.064429
      px      :     0.013264
      py      :     0.023490
 16 S s       :     5.530252  s :     5.530252
      pz      :     3.415567  p :     9.966934
      px      :     3.151468
      py      :     3.399899
      dz2     :     0.012183  d :     0.122036
      dxz     :     0.034589
      dyz     :     0.025670
      dx2y2   :     0.033024
      dxy     :     0.016570
 17 C s       :     2.944948  s :     2.944948
      pz      :     1.035330  p :     3.158048
      px      :     1.074655
      py      :     1.048064
      dz2     :     0.015945  d :     0.076789
      dxz     :     0.017309
      dyz     :     0.013806
      dx2y2   :     0.016623
      dxy     :     0.013106
 18 C s       :     2.848833  s :     2.848833
      pz      :     1.042709  p :     3.122958
      px      :     1.054193
      py      :     1.026056
      dz2     :     0.011826  d :     0.102447
      dxz     :     0.026452
      dyz     :     0.014903
      dx2y2   :     0.024821
      dxy     :     0.024444
 19 C s       :     2.844069  s :     2.844069
      pz      :     1.029326  p :     3.110359
      px      :     1.047857
      py      :     1.033176
      dz2     :     0.021620  d :     0.114390
      dxz     :     0.024461
      dyz     :     0.019797
      dx2y2   :     0.024501
      dxy     :     0.024010
 20 C s       :     2.922242  s :     2.922242
      pz      :     1.060080  p :     3.157667
      px      :     1.020433
      py      :     1.077154
      dz2     :     0.016115  d :     0.094378
      dxz     :     0.020816
      dyz     :     0.018448
      dx2y2   :     0.020549
      dxy     :     0.018451
 21 H s       :     0.894613  s :     0.894613
      pz      :     0.025819  p :     0.070902
      px      :     0.013331
      py      :     0.031753
 22 C s       :     2.841877  s :     2.841877
      pz      :     1.048167  p :     3.113546
      px      :     1.028148
      py      :     1.037231
      dz2     :     0.020980  d :     0.081566
      dxz     :     0.022216
      dyz     :     0.005318
      dx2y2   :     0.010945
      dxy     :     0.022107
 23 H s       :     0.900609  s :     0.900609
      pz      :     0.038273  p :     0.075335
      px      :     0.019850
      py      :     0.017212
 24 H s       :     0.906672  s :     0.906672
      pz      :     0.012836  p :     0.061022
      px      :     0.018587
      py      :     0.029599
 25 C s       :     2.845134  s :     2.845134
      pz      :     1.051315  p :     3.112070
      px      :     1.031980
      py      :     1.028775
      dz2     :     0.023108  d :     0.084724
      dxz     :     0.021644
      dyz     :     0.004885
      dx2y2   :     0.009745
      dxy     :     0.025342
 26 H s       :     0.911963  s :     0.911963
      pz      :     0.035133  p :     0.066996
      px      :     0.018086
      py      :     0.013776
 27 H s       :     0.912349  s :     0.912349
      pz      :     0.013761  p :     0.065735
      px      :     0.021536
      py      :     0.030438
 28 C s       :     2.811838  s :     2.811838
      pz      :     1.049819  p :     3.165626
      px      :     1.056656
      py      :     1.059152
      dz2     :     0.020597  d :     0.076010
      dxz     :     0.020987
      dyz     :     0.004114
      dx2y2   :     0.008421
      dxy     :     0.021892
 29 H s       :     0.906298  s :     0.906298
      pz      :     0.013038  p :     0.065109
      px      :     0.020623
      py      :     0.031448
 30 H s       :     0.901895  s :     0.901895
      pz      :     0.017669  p :     0.075918
      px      :     0.023312
      py      :     0.034938
 31 H s       :     0.907035  s :     0.907035
      pz      :     0.034736  p :     0.070394
      px      :     0.021220
      py      :     0.014438
 32 H s       :     0.893578  s :     0.893578
      pz      :     0.021253  p :     0.074904
      px      :     0.014181
      py      :     0.039470
 33 H s       :     0.887949  s :     0.887949
      pz      :     0.012797  p :     0.072278
      px      :     0.039608
      py      :     0.019874


                      *****************************
                      * MAYER POPULATION ANALYSIS *
                      *****************************

  NA   - Mulliken gross atomic population
  ZA   - Total nuclear charge
  QA   - Mulliken gross atomic charge
  VA   - Mayer's total valence
  BVA  - Mayer's bonded valence
  FA   - Mayer's free valence

  ATOM       NA         ZA         QA         VA         BVA        FA
  0 S     15.9043    16.0000     0.0957     2.4681     2.4681    -0.0000
  1 C      6.1108     6.0000    -0.1108     3.8313     3.8313     0.0000
  2 C      6.0841     6.0000    -0.0841     4.0076     4.0076     0.0000
  3 C      6.0198     6.0000    -0.0198     3.9452     3.9452     0.0000
  4 C      6.0959     6.0000    -0.0959     3.9119     3.9119    -0.0000
  5 H      0.9892     1.0000     0.0108     1.0072     1.0072    -0.0000
  6 C      5.9729     6.0000     0.0271     3.9385     3.9385    -0.0000
  7 H      0.9636     1.0000     0.0364     0.9858     0.9858    -0.0000
  8 H      0.9731     1.0000     0.0269     0.9887     0.9887    -0.0000
  9 C      6.0632     6.0000    -0.0632     4.0808     4.0808    -0.0000
 10 H      0.9678     1.0000     0.0322     0.9796     0.9796    -0.0000
 11 H      0.9710     1.0000     0.0290     0.9800     0.9800    -0.0000
 12 C      6.0221     6.0000    -0.0221     4.0032     4.0032     0.0000
 13 H      0.9782     1.0000     0.0218     0.9921     0.9921    -0.0000
 14 H      0.9800     1.0000     0.0200     0.9910     0.9910     0.0000
 15 H      0.9657     1.0000     0.0343     0.9868     0.9868     0.0000
 16 S     15.9073    16.0000     0.0927     2.4757     2.4757    -0.0000
 17 C      6.1233     6.0000    -0.1233     3.8376     3.8376     0.0000
 18 C      6.0378     6.0000    -0.0378     3.9531     3.9531     0.0000
 19 C      5.9838     6.0000     0.0162     3.9755     3.9755     0.0000
 20 C      6.1183     6.0000    -0.1183     3.9122     3.9122     0.0000
 21 H      0.9808     1.0000     0.0192     0.9953     0.9953     0.0000
 22 C      5.9907     6.0000     0.0093     3.9654     3.9654    -0.0000
 23 H      0.9896     1.0000     0.0104     0.9874     0.9874     0.0000
 24 H      0.9727     1.0000     0.0273     0.9952     0.9952    -0.0000
 25 C      6.0927     6.0000    -0.0927     4.0694     4.0694     0.0000
 26 H      0.9719     1.0000     0.0281     0.9804     0.9804     0.0000
 27 H      0.9818     1.0000     0.0182     0.9784     0.9784     0.0000
 28 C      5.9889     6.0000     0.0111     4.0016     4.0016    -0.0000
 29 H      0.9650     1.0000     0.0350     0.9910     0.9910     0.0000
 30 H      0.9737     1.0000     0.0263     0.9909     0.9909     0.0000
 31 H      0.9809     1.0000     0.0191     0.9926     0.9926    -0.0000
 32 H      0.9525     1.0000     0.0475     1.0052     1.0052     0.0000
 33 H      0.9265     1.0000     0.0735     0.9935     0.9935     0.0000

  Mayer bond orders larger than 0.100000
B(  0-S ,  1-C ) :   1.1205 B(  0-S ,  4-C ) :   1.1496 B(  1-C ,  2-C ) :   1.6375 
B(  1-C , 32-H ) :   0.9734 B(  2-C ,  3-C ) :   1.2123 B(  2-C ,  6-C ) :   1.0267 
B(  3-C ,  4-C ) :   1.5960 B(  3-C ,  5-H ) :   0.9887 B(  4-C , 20-C ) :   1.0378 
B(  6-C ,  7-H ) :   0.9393 B(  6-C ,  8-H ) :   0.9433 B(  6-C ,  9-C ) :   1.0526 
B(  9-C , 10-H ) :   0.9565 B(  9-C , 11-H ) :   0.9549 B(  9-C , 12-C ) :   1.0904 
B( 12-C , 13-H ) :   0.9750 B( 12-C , 14-H ) :   0.9740 B( 12-C , 15-H ) :   0.9736 
B( 16-S , 17-C ) :   1.1503 B( 16-S , 20-C ) :   1.1486 B( 17-C , 18-C ) :   1.5726 
B( 17-C , 20-C ) :   0.1190 B( 17-C , 33-H ) :   0.9672 B( 18-C , 19-C ) :   1.2908 
B( 18-C , 21-H ) :   0.9942 B( 19-C , 20-C ) :   1.5519 B( 19-C , 22-C ) :   1.0244 
B( 22-C , 23-H ) :   0.9372 B( 22-C , 24-H ) :   0.9422 B( 22-C , 25-C ) :   1.0453 
B( 25-C , 26-H ) :   0.9565 B( 25-C , 27-H ) :   0.9525 B( 25-C , 28-C ) :   1.0846 
B( 28-C , 29-H ) :   0.9753 B( 28-C , 30-H ) :   0.9702 B( 28-C , 31-H ) :   0.9727 


-------
TIMINGS
-------

Total SCF time: 0 days 0 hours 0 min 27 sec 

Total time                  ....      27.611 sec
Sum of individual times     ....      26.500 sec  ( 96.0%)

Fock matrix formation       ....      24.601 sec  ( 89.1%)
  XC integration            ....       1.745 sec  (  7.1% of F)
    Basis function eval.    ....       0.211 sec  ( 12.1% of XC)
    Density eval.           ....       0.171 sec  (  9.8% of XC)
    XC-Functional eval.     ....       0.171 sec  (  9.8% of XC)
    XC-Potential eval.      ....       0.178 sec  ( 10.2% of XC)
Diagonalization             ....       0.140 sec  (  0.5%)
Density matrix formation    ....       0.018 sec  (  0.1%)
Population analysis         ....       0.056 sec  (  0.2%)
Initial guess               ....       0.192 sec  (  0.7%)
Orbital Transformation      ....       0.000 sec  (  0.0%)
Orbital Orthonormalization  ....       0.000 sec  (  0.0%)
DIIS solution               ....       0.169 sec  (  0.6%)
SOSCF solution              ....       0.133 sec  (  0.5%)
Grid generation             ....       1.190 sec  (  4.3%)


-------------------------------------------------------------------------------
                          DFT DISPERSION CORRECTION                            
                                                                               
                              DFTD3 V3.1  Rev 1                                
                              USING zero damping                               
-------------------------------------------------------------------------------
The omegaB97X-D3 functional is recognized. Fit by Chai et al.
Active option DFTDOPT                   ...         3   

molecular C6(AA) [au] = 14158.342563 


            DFT-D V3
 parameters
 s6 scaling factor         :     1.0000 
 rs6 scaling factor        :     1.2810 
 s8 scaling factor         :     1.0000 
 rs8 scaling factor        :     1.0940 
 Damping factor alpha6     :    14.0000 
 Damping factor alpha8     :    16.0000 
 ad hoc parameters k1-k3   :    16.0000     1.3333    -4.0000 

 Edisp/kcal,au: -8.558876364669  -0.013639436224 
 E6   /kcal   :  -3.925560370 
 E8   /kcal   :  -4.633315995 
 % E8         :  54.134629327 

-------------------------   ----------------
Dispersion correction           -0.013639436
-------------------------   ----------------


-------------------------   --------------------
FINAL SINGLE POINT ENERGY     -1339.870740341940
-------------------------   --------------------


                            ***************************************
                            *     ORCA property calculations      *
                            ***************************************

                                    ---------------------
                                    Active property flags
                                    ---------------------
   (+) Dipole Moment


------------------------------------------------------------------------------
                       ORCA ELECTRIC PROPERTIES CALCULATION
------------------------------------------------------------------------------

Dipole Moment Calculation                       ... on
Quadrupole Moment Calculation                   ... off
Polarizability Calculation                      ... off
GBWName                                         ... config_3222.gbw
Electron density file                           ... config_3222.scfp
The origin for moment calculation is the CENTER OF MASS  = (84.560907, 33.964099 160.843781)

-------------
DIPOLE MOMENT
-------------
                                X             Y             Z
Electronic contribution:     28.55293       4.04977      17.18946
Nuclear contribution   :    -29.08594      -4.31300     -17.71291
                        -----------------------------------------
Total Dipole Moment    :     -0.53301      -0.26322      -0.52345
                        -----------------------------------------
Magnitude (a.u.)       :      0.79207
Magnitude (Debye)      :      2.01329



--------------------
Rotational spectrum 
--------------------
 
Rotational constants in cm-1:     0.016913     0.008989     0.006073 
Rotational constants in MHz :   507.038807   269.489118   182.049104 

 Dipole components along the rotational axes: 
x,y,z [a.u.] :    -0.214941    -0.759480    -0.066134 
x,y,z [Debye]:    -0.546337    -1.930444    -0.168100 

 

Timings for individual modules:

Sum of individual times         ...       28.670 sec (=   0.478 min)
GTO integral calculation        ...        0.738 sec (=   0.012 min)   2.6 %
SCF iterations                  ...       27.932 sec (=   0.466 min)  97.4 %
                             ****ORCA TERMINATED NORMALLY****
TOTAL RUN TIME: 0 days 0 hours 0 minutes 29 seconds 374 msec
