
                                 *****************
                                 * O   R   C   A *
                                 *****************

           --- An Ab Initio, DFT and Semiempirical electronic structure package ---

                  #######################################################
                  #                        -***-                        #
                  #          Department of theory and spectroscopy      #
                  #               Directorship: Frank Neese             #
                  #        Max Planck Institute fuer Kohlenforschung    #
                  #                Kaiser Wilhelm Platz 1               #
                  #                 D-45470 Muelheim/Ruhr               #
                  #                      Germany                        #
                  #                                                     #
                  #                  All rights reserved                #
                  #                        -***-                        #
                  #######################################################


                         Program Version 4.2.1 -  RELEASE  -


 With contributions from (in alphabetic order):
   Daniel Aravena         : Magnetic Suceptibility
   Michael Atanasov       : Ab Initio Ligand Field Theory (pilot matlab implementation)
   Alexander A. Auer      : GIAO ZORA, VPT2
   Ute Becker             : Parallelization
   Giovanni Bistoni       : ED, misc. LED, open-shell LED, HFLD
   Martin Brehm           : Molecular dynamics
   Dmytro Bykov           : SCF Hessian
   Vijay G. Chilkuri      : MRCI spin determinant printing, contributions to CSF-ICE
   Dipayan Datta          : RHF DLPNO-CCSD density
   Achintya Kumar Dutta   : EOM-CC, STEOM-CC
   Dmitry Ganyushin       : Spin-Orbit,Spin-Spin,Magnetic field MRCI
   Miquel Garcia          : C-PCM Hessian, Gaussian charge scheme
   Yang Guo               : DLPNO-NEVPT2, CIM, IAO-localization
   Andreas Hansen         : Spin unrestricted coupled pair/coupled cluster methods
   Benjamin Helmich-Paris : CASSCF linear response (MC-RPA)
   Lee Huntington         : MR-EOM, pCC
   Robert Izsak           : Overlap fitted RIJCOSX, COSX-SCS-MP3, EOM
   Christian Kollmar      : KDIIS, OOCD, Brueckner-CCSD(T), CCSD density
   Simone Kossmann        : Meta GGA functionals, TD-DFT gradient, OOMP2, MP2 Hessian
   Martin Krupicka        : AUTO-CI
   Lucas Lang             : DCDCAS
   Dagmar Lenk            : GEPOL surface, SMD
   Dimitrios Liakos       : Extrapolation schemes; Compound Job, initial MDCI parallelization
   Dimitrios Manganas     : Further ROCIS development; embedding schemes
   Dimitrios Pantazis     : SARC Basis sets
   Taras Petrenko         : DFT Hessian,TD-DFT gradient, ASA, ECA, R-Raman, ABS, FL, XAS/XES, NRVS
   Peter Pinski           : DLPNO-MP2, DLPNO-MP2 Gradient
   Christoph Reimann      : Effective Core Potentials
   Marius Retegan         : Local ZFS, SOC
   Christoph Riplinger    : Optimizer, TS searches, QM/MM, DLPNO-CCSD(T), (RO)-DLPNO pert. Triples
   Tobias Risthaus        : Range-separated hybrids, TD-DFT gradient, RPA, STAB
   Michael Roemelt        : Original ROCIS implementation
   Masaaki Saitow         : Open-shell DLPNO-CCSD energy and density
   Barbara Sandhoefer     : DKH picture change effects
   Avijit Sen             : IP-ROCIS
   Kantharuban Sivalingam : CASSCF convergence, NEVPT2, FIC-MRCI
   Bernardo de Souza      : ESD, SOC TD-DFT
   Georgi Stoychev        : AutoAux, RI-MP2 NMR
   Willem Van den Heuvel  : Paramagnetic NMR
   Boris Wezisla          : Elementary symmetry handling
   Frank Wennmohs         : Technical directorship


 We gratefully acknowledge several colleagues who have allowed us to
 interface, adapt or use parts of their codes:
   Stefan Grimme, W. Hujo, H. Kruse,             : VdW corrections, initial TS optimization,
                  C. Bannwarth                     DFT functionals, gCP, sTDA/sTD-DF
   Ed Valeev, F. Pavosevic, A. Kumar             : LibInt (2-el integral package), F12 methods
   Garnet Chan, S. Sharma, J. Yang, R. Olivares  : DMRG
   Ulf Ekstrom                                   : XCFun DFT Library
   Mihaly Kallay                                 : mrcc  (arbitrary order and MRCC methods)
   Andreas Klamt, Michael Diedenhofen            : otool_cosmo (COSMO solvation model)
   Jiri Pittner, Ondrej Demel                    : Mk-CCSD
   Frank Weinhold                                : gennbo (NPA and NBO analysis)
   Christopher J. Cramer and Donald G. Truhlar   : smd solvation model
   Lars Goerigk                                  : TD-DFT with DH, B97 family of functionals
   V. Asgeirsson, H. Jonsson                     : NEB implementation
   FAccTs GmbH                                   : IRC, NEB, NEB-TS, Multilevel, MM, QM/MM, CI optimization
   S Lehtola, MJT Oliveira, MAL Marques          : LibXC Library


 Your calculation uses the libint2 library for the computation of 2-el integrals
 For citations please refer to: http://libint.valeyev.net

 Your ORCA version has been built with support for libXC version: 4.2.3
 For citations please refer to: https://tddft.org/programs/libxc/

 This ORCA versions uses:
   CBLAS   interface :  Fast vector & matrix operations
   LAPACKE interface :  Fast linear algebra routines
   SCALAPACK package :  Parallel linear algebra routines


Your calculation utilizes the atom-pairwise dispersion correction
with the zero-damping scheme (D30)
Cite in your paper:
S.Grimme, J.Antony, S.Ehrlich and H.Krieg, J.Chem.Phys., 132, (2010), 154104 
   

XCFun DFT library Copyright 2009-2010 Ulf Ekstrom and contributors.
See http://admol.org/xcfun for more information. This is free soft-
ware; see the source code for copying conditions. There is ABSOLUTELY
NO WARRANTY; not even for MERCHANTABILITY or FITNESS FOR A PARTICULAR
PURPOSE. For details see the documentation. Scientific users of this 
library should cite U. Ekstrom, L. Visscher, R. Bast, A. J. Thorvald-
sen and K. Ruud; J.Chem.Theor.Comp. 2010, DOI: 10.1021/ct100117s
XCFun Version 0.99 
----- Orbital basis set information -----
Your calculation utilizes the basis: def2-SVP
   F. Weigend and R. Ahlrichs, Phys. Chem. Chem. Phys. 7, 3297 (2005).

================================================================================
                                        WARNINGS
                       Please study these warnings very carefully!
================================================================================


INFO   : the flag for use of LIBINT has been found!

================================================================================
                                       INPUT FILE
================================================================================
NAME = config_3058.inp
|  1> ! wB97X-D3 SP def2-SVP
|  2> %pal
|  3> nprocs 16
|  4> end
|  5> 
|  6> * xyz 0 1
|  7> S 	 44.294 	 15.1801 	 80.7424 	 
|  8> C 	 43.7342 	 16.8795 	 80.5981 	 
|  9> C 	 43.7667 	 17.5834 	 81.8161 	 
| 10> C 	 44.0479 	 16.6501 	 82.9106 	 
| 11> C 	 44.2902 	 15.3249 	 82.4777 	 
| 12> H 	 44.1672 	 16.8488 	 83.9693 	 
| 13> C 	 43.2354 	 18.9324 	 82.122 	 
| 14> H 	 43.8627 	 19.7276 	 81.7063 	 
| 15> H 	 43.3399 	 18.9669 	 83.1691 	 
| 16> C 	 41.7975 	 19.2627 	 81.6223 	 
| 17> H 	 41.622 	 19.2337 	 80.5092 	 
| 18> H 	 41.2553 	 18.3822 	 82.0277 	 
| 19> C 	 41.2352 	 20.6258 	 82.0778 	 
| 20> H 	 40.9251 	 20.7568 	 83.0982 	 
| 21> H 	 41.9272 	 21.4696 	 81.9116 	 
| 22> H 	 40.3294 	 20.8201 	 81.5709 	 
| 23> S 	 43.8339 	 12.7871 	 82.7019 	 
| 24> C 	 44.4234 	 11.8441 	 84.0589 	 
| 25> C 	 45.0639 	 12.6237 	 84.9806 	 
| 26> C 	 45.1601 	 13.9739 	 84.5248 	 
| 27> C 	 44.5812 	 14.1756 	 83.335 	 
| 28> H 	 45.5386 	 12.2114 	 85.8229 	 
| 29> C 	 46.1153 	 14.9417 	 85.234 	 
| 30> H 	 46.2697 	 15.8942 	 84.6834 	 
| 31> H 	 46.9892 	 14.4095 	 85.1922 	 
| 32> C 	 45.7157 	 15.1797 	 86.6793 	 
| 33> H 	 46.5561 	 15.7275 	 87.1684 	 
| 34> H 	 45.7212 	 14.2756 	 87.0981 	 
| 35> C 	 44.3261 	 15.8145 	 86.9301 	 
| 36> H 	 44.2452 	 16.9148 	 86.6774 	 
| 37> H 	 44.134 	 15.6763 	 87.9862 	 
| 38> H 	 43.4967 	 15.3534 	 86.4081 	 
| 39> H 	 43.2656 	 17.2363 	 79.6462 	 
| 40> H 	 44.3208 	 10.8303 	 84.2034 	 
| 41> *
| 42> 
| 43>                          ****END OF INPUT****
================================================================================

                       ****************************
                       * Single Point Calculation *
                       ****************************

---------------------------------
CARTESIAN COORDINATES (ANGSTROEM)
---------------------------------
  S     44.294000   15.180100   80.742400
  C     43.734200   16.879500   80.598100
  C     43.766700   17.583400   81.816100
  C     44.047900   16.650100   82.910600
  C     44.290200   15.324900   82.477700
  H     44.167200   16.848800   83.969300
  C     43.235400   18.932400   82.122000
  H     43.862700   19.727600   81.706300
  H     43.339900   18.966900   83.169100
  C     41.797500   19.262700   81.622300
  H     41.622000   19.233700   80.509200
  H     41.255300   18.382200   82.027700
  C     41.235200   20.625800   82.077800
  H     40.925100   20.756800   83.098200
  H     41.927200   21.469600   81.911600
  H     40.329400   20.820100   81.570900
  S     43.833900   12.787100   82.701900
  C     44.423400   11.844100   84.058900
  C     45.063900   12.623700   84.980600
  C     45.160100   13.973900   84.524800
  C     44.581200   14.175600   83.335000
  H     45.538600   12.211400   85.822900
  C     46.115300   14.941700   85.234000
  H     46.269700   15.894200   84.683400
  H     46.989200   14.409500   85.192200
  C     45.715700   15.179700   86.679300
  H     46.556100   15.727500   87.168400
  H     45.721200   14.275600   87.098100
  C     44.326100   15.814500   86.930100
  H     44.245200   16.914800   86.677400
  H     44.134000   15.676300   87.986200
  H     43.496700   15.353400   86.408100
  H     43.265600   17.236300   79.646200
  H     44.320800   10.830300   84.203400

----------------------------
CARTESIAN COORDINATES (A.U.)
----------------------------
  NO LB      ZA    FRAG     MASS         X           Y           Z
   0 S    16.0000    0    32.060   83.703529   28.686232  152.581023
   1 C     6.0000    0    12.011   82.645661   31.897632  152.308336
   2 C     6.0000    0    12.011   82.707077   33.227811  154.610022
   3 C     6.0000    0    12.011   83.238468   31.464129  156.678328
   4 C     6.0000    0    12.011   83.696348   28.959864  155.860265
   5 H     1.0000    0     1.008   83.463912   31.839618  158.678981
   6 C     6.0000    0    12.011   81.703065   35.777051  155.188090
   7 H     1.0000    0     1.008   82.888490   37.279761  154.402530
   8 H     1.0000    0     1.008   81.900542   35.842247  157.166822
   9 C     6.0000    0    12.011   78.985828   36.401228  154.243793
  10 H     1.0000    0     1.008   78.654181   36.346426  152.140339
  11 H     1.0000    0     1.008   77.961219   34.737324  155.009888
  12 C     6.0000    0    12.011   77.923235   38.977113  155.104564
  13 H     1.0000    0     1.008   77.337231   39.224667  157.032840
  14 H     1.0000    0     1.008   79.230926   40.571664  154.790491
  15 H     1.0000    0     1.008   76.211521   39.344287  154.146661
  16 S    16.0000    0    32.060   82.834066   24.164117  156.283942
  17 C     6.0000    0    12.011   83.948060   22.382105  158.848300
  18 C     6.0000    0    12.011   85.158430   23.855336  160.590061
  19 C     6.0000    0    12.011   85.340221   26.406844  159.728724
  20 C     6.0000    0    12.011   84.246259   26.788002  157.480327
  21 H     1.0000    0     1.008   86.055483   23.076202  162.181777
  22 C     6.0000    0    12.011   87.145288   28.235721  161.068917
  23 H     1.0000    0     1.008   87.437061   30.035685  160.028434
  24 H     1.0000    0     1.008   88.796719   27.230009  160.989927
  25 C     6.0000    0    12.011   86.390153   28.685476  163.800138
  26 H     1.0000    0     1.008   87.978279   29.720668  164.724404
  27 H     1.0000    0     1.008   86.400547   26.976974  164.591556
  28 C     6.0000    0    12.011   83.764190   29.885074  164.274082
  29 H     1.0000    0     1.008   83.611311   31.964340  163.796548
  30 H     1.0000    0     1.008   83.401173   29.623914  166.269822
  31 H     1.0000    0     1.008   82.196851   29.013721  163.287645
  32 H     1.0000    0     1.008   81.760135   32.571887  150.509506
  33 H     1.0000    0     1.008   83.754174   20.466301  159.121366

--------------------------------
INTERNAL COORDINATES (ANGSTROEM)
--------------------------------
 S      0   0   0     0.000000000000     0.00000000     0.00000000
 C      1   0   0     1.795037294877     0.00000000     0.00000000
 C      2   1   0     1.407144434662   113.37800778     0.00000000
 C      3   2   1     1.465623614711   109.40764576   350.78762217
 C      4   3   2     1.415014749040   113.62591273     3.50535399
 H      4   3   2     1.083771133589   129.33660408   178.35362124
 C      3   2   1     1.481774443024   128.74243839   188.10196191
 H      7   3   2     1.094830954988   112.17365899   285.11053016
 H      7   3   2     1.052866995399   101.51091943   170.89055385
 C      7   3   2     1.557676022156   117.24560871    46.25999106
 H     10   7   3     1.127223518207   117.06777434   298.66650124
 H     10   7   3     1.110680084453    99.52271057    51.39540734
 C     10   7   3     1.543276757422   115.40057449   174.42303497
 H     13  10   7     1.074494844101   119.54644433   286.55442323
 H     13  10   7     1.103850026045   113.72319835    49.15481926
 H     13  10   7     1.056017869167   109.47294002   171.27455836
 S      5   4   3     2.588224134421   149.49585485   228.20292774
 C     17   5   4     1.754482331060   122.32844686   288.55362964
 C     18  17   5     1.366582342927   111.87081494     3.42732767
 C     19  18  17     1.428302530979   110.83110093   355.55435083
 C     20  19  18     1.338443924862   113.39109303     1.61586338
 H     19  18  17     1.051094986193   121.89582829   184.42724989
 C     20  19  18     1.533625938748   119.40134197   194.24226387
 H     23  20  19     1.110970733188   113.47920280   168.27628745
 H     23  20  19     1.024053362867   100.64243495    53.32125570
 C     23  20  19     1.518293861543   112.03651460   296.27703082
 H     26  23  20     1.116053677025   107.21317670   169.41947554
 H     26  23  20     0.996403783614   104.85763381    58.28497763
 C     26  23  20     1.548179524474   117.04656002   298.66248554
 H     29  26  23     1.131840178647   115.25141063   286.98472637
 H     29  26  23     1.082288713791   105.36889314   166.50413784
 H     29  26  23     1.083051970129   115.76708901    49.42972875
 H      2   1   3     1.119377420712   120.04496310   188.91805843
 H     18  17   5     1.029173187564   127.19653548   182.76484371

---------------------------
INTERNAL COORDINATES (A.U.)
---------------------------
 S      0   0   0     0.000000000000     0.00000000     0.00000000
 C      1   0   0     3.392128887493     0.00000000     0.00000000
 C      2   1   0     2.659117612382   113.37800778     0.00000000
 C      3   2   1     2.769627247212   109.40764576   350.78762217
 C      4   3   2     2.673990351144   113.62591273     3.50535399
 H      4   3   2     2.048030634332   129.33660408   178.35362124
 C      3   2   1     2.800147889560   128.74243839   188.10196191
 H      7   3   2     2.068930667867   112.17365899   285.11053016
 H      7   3   2     1.989630276748   101.51091943   170.89055385
 C      7   3   2     2.943581087251   117.24560871    46.25999106
 H     10   7   3     2.130143741127   117.06777434   298.66650124
 H     10   7   3     2.098881182016    99.52271057    51.39540734
 C     10   7   3     2.916370420374   115.40057449   174.42303497
 H     13  10   7     2.030500987662   119.54644433   286.55442323
 H     13  10   7     2.085974242147   113.72319835    49.15481926
 H     13  10   7     1.995584565253   109.47294002   171.27455836
 S      5   4   3     4.891034787261   149.49585485   228.20292774
 C     17   5   4     3.315491112506   122.32844686   288.55362964
 C     18  17   5     2.582466367585   111.87081494     3.42732767
 C     19  18  17     2.699100619936   110.83110093   355.55435083
 C     20  19  18     2.529292463600   113.39109303     1.61586338
 H     19  18  17     1.986281664642   121.89582829   184.42724989
 C     20  19  18     2.898133016111   119.40134197   194.24226387
 H     23  20  19     2.099430428527   113.47920280   168.27628745
 H     23  20  19     1.935180402340   100.64243495    53.32125570
 C     23  20  19     2.869159589131   112.03651460   296.27703082
 H     26  23  20     2.109035800332   107.21317670   169.41947554
 H     26  23  20     1.882930269833   104.85763381    58.28497763
 C     26  23  20     2.925635307400   117.04656002   298.66248554
 H     29  26  23     2.138867965012   115.25141063   286.98472637
 H     29  26  23     2.045229266899   105.36889314   166.50413784
 H     29  26  23     2.046671612347   115.76708901    49.42972875
 H      2   1   3     2.115316765641   120.04496310   188.91805843
 H     18  17   5     1.944855468870   127.19653548   182.76484371

---------------------
BASIS SET INFORMATION
---------------------
There are 3 groups of distinct atoms

 Group   1 Type S   : 10s7p1d contracted to 4s3p1d pattern {5311/511/1}
 Group   2 Type C   : 7s4p1d contracted to 3s2p1d pattern {511/31/1}
 Group   3 Type H   : 4s1p contracted to 2s1p pattern {31/1}

Atom   0S    basis set group =>   1
Atom   1C    basis set group =>   2
Atom   2C    basis set group =>   2
Atom   3C    basis set group =>   2
Atom   4C    basis set group =>   2
Atom   5H    basis set group =>   3
Atom   6C    basis set group =>   2
Atom   7H    basis set group =>   3
Atom   8H    basis set group =>   3
Atom   9C    basis set group =>   2
Atom  10H    basis set group =>   3
Atom  11H    basis set group =>   3
Atom  12C    basis set group =>   2
Atom  13H    basis set group =>   3
Atom  14H    basis set group =>   3
Atom  15H    basis set group =>   3
Atom  16S    basis set group =>   1
Atom  17C    basis set group =>   2
Atom  18C    basis set group =>   2
Atom  19C    basis set group =>   2
Atom  20C    basis set group =>   2
Atom  21H    basis set group =>   3
Atom  22C    basis set group =>   2
Atom  23H    basis set group =>   3
Atom  24H    basis set group =>   3
Atom  25C    basis set group =>   2
Atom  26H    basis set group =>   3
Atom  27H    basis set group =>   3
Atom  28C    basis set group =>   2
Atom  29H    basis set group =>   3
Atom  30H    basis set group =>   3
Atom  31H    basis set group =>   3
Atom  32H    basis set group =>   3
Atom  33H    basis set group =>   3


           ************************************************************
           *        Program running with 16 parallel MPI-processes    *
           *              working on a common directory               *
           ************************************************************
------------------------------------------------------------------------------
                           ORCA GTO INTEGRAL CALCULATION
------------------------------------------------------------------------------

                         BASIS SET STATISTICS AND STARTUP INFO

 # of primitive gaussian shells          ...  294
 # of primitive gaussian functions       ...  534
 # of contracted shells                  ...  154
 # of contracted basis functions         ...  322
 Highest angular momentum                ...    2
 Maximum contraction depth               ...    5
 Integral package used                   ... LIBINT
 Integral threshhold            Thresh   ...  1.000e-10
 Primitive cut-off              TCut     ...  1.000e-11


------------------------------ INTEGRAL EVALUATION ----------------------------


 * One electron integrals 
 Pre-screening matrix                    ... done
 Shell pair data                         ... done (   0.003 sec)



           ************************************************************
           *        Program running with 16 parallel MPI-processes    *
           *              working on a common directory               *
           ************************************************************
-------------------------------------------------------------------------------
                                 ORCA SCF
-------------------------------------------------------------------------------

------------
SCF SETTINGS
------------
Hamiltonian:
 Density Functional     Method          .... DFT(GTOs)
 Exchange Functional    Exchange        .... WB97X-D3
 Correlation Functional Correlation     .... WB97X-D3
 Gradients option       PostSCFGGA      .... off
 Hybrid DFT is turned on
   Fraction HF Exchange ScalHFX         ....  0.195728
   Scaling of DF-GGA-X  ScalDFX         ....  0.000000
   Scaling of DF-GGA-C  ScalDFC         ....  1.000000
   Scaling of DF-LDA-C  ScalLDAC        ....  1.000000
   Perturbative correction              ....  0.000000
   Density functional embedding theory  .... OFF
 Long-range corrected/Screened/Range-Separated Hybrid DFT is turned on
   Amount of maximum screened exact exchange              ....  0.804272
   Range separation parameter mu (erf(mu*r12)/r12)        ....  0.250000


General Settings:
 Integral files         IntName         .... config_3058
 Hartree-Fock type      HFTyp           .... RHF
 Total Charge           Charge          ....    0
 Multiplicity           Mult            ....    1
 Number of Electrons    NEL             ....  134
 Basis Dimension        Dim             ....  322
 Nuclear Repulsion      ENuc            ....   1285.8170484142 Eh

Convergence Acceleration:
 DIIS                   CNVDIIS         .... on
   Start iteration      DIISMaxIt       ....    12
   Startup error        DIISStart       ....  0.200000
   # of expansion vecs  DIISMaxEq       ....     5
   Bias factor          DIISBfac        ....   1.050
   Max. coefficient     DIISMaxC        ....  10.000
 Newton-Raphson         CNVNR           .... off
 SOSCF                  CNVSOSCF        .... on
   Start iteration      SOSCFMaxIt      ....   150
   Startup grad/error   SOSCFStart      ....  0.003300
 Level Shifting         CNVShift        .... on
   Level shift para.    LevelShift      ....    0.2500
   Turn off err/grad.   ShiftErr        ....    0.0010
 Zerner damping         CNVZerner       .... off
 Static damping         CNVDamp         .... on
   Fraction old density DampFac         ....    0.7000
   Max. Damping (<1)    DampMax         ....    0.9800
   Min. Damping (>=0)   DampMin         ....    0.0000
   Turn off err/grad.   DampErr         ....    0.1000
 Fernandez-Rico         CNVRico         .... off

SCF Procedure:
 Maximum # iterations   MaxIter         ....   125
 SCF integral mode      SCFMode         .... Direct
   Integral package                     .... LIBINT
 Reset frequency        DirectResetFreq ....    20
 Integral Threshold     Thresh          ....  1.000e-10 Eh
 Primitive CutOff       TCut            ....  1.000e-11 Eh

Convergence Tolerance:
 Convergence Check Mode ConvCheckMode   .... Total+1el-Energy
 Convergence forced     ConvForced      .... 0
 Energy Change          TolE            ....  1.000e-06 Eh
 1-El. energy change                    ....  1.000e-03 Eh
 Orbital Gradient       TolG            ....  5.000e-05
 Orbital Rotation angle TolX            ....  5.000e-05
 DIIS Error             TolErr          ....  1.000e-06


Diagonalization of the overlap matrix:
Smallest eigenvalue                        ... 5.103e-04
Time for diagonalization                   ...    0.015 sec
Threshold for overlap eigenvalues          ... 1.000e-08
Number of eigenvalues below threshold      ... 0
Time for construction of square roots      ...    0.031 sec
Total time needed                          ...    0.046 sec

-------------------
DFT GRID GENERATION
-------------------

General Integration Accuracy     IntAcc      ...  4.340
Radial Grid Type                 RadialGrid  ... Gauss-Chebyshev
Angular Grid (max. acc.)         AngularGrid ... Lebedev-110
Angular grid pruning method      GridPruning ... 3 (G Style)
Weight generation scheme         WeightScheme... Becke
Basis function cutoff            BFCut       ...    1.0000e-10
Integration weight cutoff        WCut        ...    1.0000e-14
Grids for H and He will be reduced by one unit

# of grid points (after initial pruning)     ...  41088 (   0.0 sec)
# of grid points (after weights+screening)   ...  37000 (   0.0 sec)
nearest neighbour list constructed           ...    0.0 sec
Grid point re-assignment to atoms done       ...    0.0 sec
Grid point division into batches done        ...    0.0 sec
Reduced shell lists constructed in    0.1 sec

Total number of grid points                  ...    37000
Total number of batches                      ...      596
Average number of points per batch           ...       62
Average number of grid points per atom       ...     1088
Average number of shells per batch           ...    74.67 (48.48%)
Average number of basis functions per batch  ...   148.36 (46.07%)
Average number of large shells per batch     ...    46.33 (62.05%)
Average number of large basis fcns per batch ...    96.13 (64.79%)
Maximum spatial batch extension              ...  21.48, 18.89, 15.27 au
Average spatial batch extension              ...   0.24,  0.21,  0.20 au

Time for grid setup =    0.173 sec

------------------------------
INITIAL GUESS: MODEL POTENTIAL
------------------------------
Loading Hartree-Fock densities                     ... done
Calculating cut-offs                               ... done
Setting up the integral package                    ... done
Initializing the effective Hamiltonian             ... done
Starting the Coulomb interaction                   ... done (   0.0 sec)
Reading the grid                                   ... done
Mapping shells                                     ... done
Starting the XC term evaluation                    ... done (   0.0 sec)
  promolecular density results
     # of electrons  =    134.000281611
     EX              =   -126.752558484
     EC              =     -4.624821055
     EX+EC           =   -131.377379538
Transforming the Hamiltonian                       ... done (   0.0 sec)
Diagonalizing the Hamiltonian                      ... done (   0.0 sec)
Back transforming the eigenvectors                 ... done (   0.0 sec)
Now organizing SCF variables                       ... done
                      ------------------
                      INITIAL GUESS DONE (   0.4 sec)
                      ------------------
--------------
SCF ITERATIONS
--------------
ITER       Energy         Delta-E        Max-DP      RMS-DP      [F,P]     Damp
               ***  Starting incremental Fock matrix formation  ***
  0  -1339.3965098419   0.000000000000 0.06555226  0.00164566  0.1600974 0.7000
  1  -1339.5869448341  -0.190434992201 0.04407794  0.00119199  0.0971741 0.7000
                               ***Turning on DIIS***
  2  -1339.6786238545  -0.091679020408 0.09101225  0.00223586  0.0506929 0.0000
  3  -1339.8176906299  -0.139066775426 0.04343564  0.00102608  0.0445415 0.0000
  4  -1339.8476138774  -0.029923247535 0.00758360  0.00020240  0.0075896 0.0000
                      *** Initiating the SOSCF procedure ***
                           *** Shutting down DIIS ***
                      *** Re-Reading the Fockian *** 
                      *** Removing any level shift *** 
ITER      Energy       Delta-E        Grad      Rot      Max-DP    RMS-DP
  5  -1339.84851136  -0.0008974782  0.001510  0.001510  0.003349  0.000098
               *** Restarting incremental Fock matrix formation ***
  6  -1339.84870458  -0.0001932279  0.001100  0.003096  0.002684  0.000067
  7  -1339.84877277  -0.0000681911  0.000691  0.004198  0.003715  0.000066
  8  -1339.84879092  -0.0000181463  0.000423  0.000880  0.000960  0.000020
  9  -1339.84879600  -0.0000050762  0.000122  0.000351  0.000307  0.000009
 10  -1339.84879639  -0.0000003921  0.000071  0.000207  0.000170  0.000004
                 **** Energy Check signals convergence ****
              ***Rediagonalizing the Fockian in SOSCF/NRSCF***

               *****************************************************
               *                     SUCCESS                       *
               *           SCF CONVERGED AFTER  11 CYCLES          *
               *****************************************************

Setting up the final grid:

General Integration Accuracy     IntAcc      ...  4.670
Radial Grid Type                 RadialGrid  ... Gauss-Chebyshev
Angular Grid (max. acc.)         AngularGrid ... Lebedev-302
Angular grid pruning method      GridPruning ... 3 (G Style)
Weight generation scheme         WeightScheme... Becke
Basis function cutoff            BFCut       ...    1.0000e-10
Integration weight cutoff        WCut        ...    1.0000e-14
Grids for H and He will be reduced by one unit

# of grid points (after initial pruning)     ... 161752 (   0.0 sec)
# of grid points (after weights+screening)   ... 142792 (   0.2 sec)
nearest neighbour list constructed           ...    0.0 sec
Grid point re-assignment to atoms done       ...    0.0 sec
Grid point division into batches done        ...    0.5 sec
Reduced shell lists constructed in    0.6 sec

Total number of grid points                  ...   142792
Total number of batches                      ...     2248
Average number of points per batch           ...       63
Average number of grid points per atom       ...     4200
Average number of shells per batch           ...    68.25 (44.32%)
Average number of basis functions per batch  ...   135.18 (41.98%)
Average number of large shells per batch     ...    41.34 (60.57%)
Average number of large basis fcns per batch ...    85.73 (63.42%)
Maximum spatial batch extension              ...  17.23, 14.58, 13.57 au
Average spatial batch extension              ...   0.15,  0.14,  0.14 au

Final grid set up in    0.9 sec
Final integration                            ... done (   0.3 sec)
Change in XC energy                          ...     0.006681833
Integrated number of electrons               ...   133.999877293
Previous integrated no of electrons          ...   134.002091225

----------------
TOTAL SCF ENERGY
----------------

Total Energy       :        -1339.84211484 Eh          -36458.95748 eV

Components:
Nuclear Repulsion  :         1285.81704841 Eh           34988.86069 eV
Electronic Energy  :        -2625.65916325 Eh          -71447.81817 eV
One Electron Energy:        -4388.14487668 Eh         -119407.49265 eV
Two Electron Energy:         1762.48571343 Eh           47959.67449 eV

Virial components:
Potential Energy   :        -2671.63422156 Eh          -72698.86311 eV
Kinetic Energy     :         1331.79210673 Eh           36239.90563 eV
Virial Ratio       :            2.00604449


DFT components:
N(Alpha)           :       66.999938646536 electrons
N(Beta)            :       66.999938646536 electrons
N(Total)           :      133.999877293072 electrons
E(XC)              :      -94.309487689778 Eh       
DFET-embed. en.    :        0.000000000000 Eh       

---------------
SCF CONVERGENCE
---------------

  Last Energy change         ...   -2.8051e-07  Tolerance :   1.0000e-06
  Last MAX-Density change    ...    3.8426e-05  Tolerance :   1.0000e-05
  Last RMS-Density change    ...    7.6297e-07  Tolerance :   1.0000e-06
  Last Orbital Gradient      ...    7.3447e-06  Tolerance :   5.0000e-05
  Last Orbital Rotation      ...    1.8529e-05  Tolerance :   5.0000e-05

             **** THE GBW FILE WAS UPDATED (config_3058.gbw) ****
             **** DENSITY FILE WAS UPDATED (config_3058.scfp) ****
             **** ENERGY FILE WAS UPDATED (config_3058.en.tmp) ****
             **** THE GBW FILE WAS UPDATED (config_3058.gbw) ****
             **** DENSITY FILE WAS UPDATED (config_3058.scfp) ****
----------------
ORBITAL ENERGIES
----------------

  NO   OCC          E(Eh)            E(eV) 
   0   2.0000     -88.968491     -2420.9557 
   1   2.0000     -88.961510     -2420.7658 
   2   2.0000     -10.330575      -281.1092 
   3   2.0000     -10.320739      -280.8416 
   4   2.0000     -10.316388      -280.7232 
   5   2.0000     -10.310177      -280.5542 
   6   2.0000     -10.307359      -280.4775 
   7   2.0000     -10.297307      -280.2040 
   8   2.0000     -10.296799      -280.1901 
   9   2.0000     -10.296212      -280.1742 
  10   2.0000     -10.290115      -280.0083 
  11   2.0000     -10.288890      -279.9749 
  12   2.0000     -10.284283      -279.8496 
  13   2.0000     -10.281264      -279.7674 
  14   2.0000     -10.280421      -279.7445 
  15   2.0000     -10.276514      -279.6382 
  16   2.0000      -8.082466      -219.9351 
  17   2.0000      -8.077666      -219.8045 
  18   2.0000      -6.041011      -164.3843 
  19   2.0000      -6.037169      -164.2797 
  20   2.0000      -6.036170      -164.2525 
  21   2.0000      -6.033149      -164.1703 
  22   2.0000      -6.031982      -164.1386 
  23   2.0000      -6.028297      -164.0383 
  24   2.0000      -1.014608       -27.6089 
  25   2.0000      -0.978761       -26.6334 
  26   2.0000      -0.916085       -24.9279 
  27   2.0000      -0.910254       -24.7693 
  28   2.0000      -0.869964       -23.6729 
  29   2.0000      -0.850262       -23.1368 
  30   2.0000      -0.845849       -23.0167 
  31   2.0000      -0.812247       -22.1024 
  32   2.0000      -0.785388       -21.3715 
  33   2.0000      -0.778215       -21.1763 
  34   2.0000      -0.709611       -19.3095 
  35   2.0000      -0.707385       -19.2489 
  36   2.0000      -0.693253       -18.8644 
  37   2.0000      -0.672804       -18.3079 
  38   2.0000      -0.636480       -17.3195 
  39   2.0000      -0.613729       -16.7004 
  40   2.0000      -0.599898       -16.3240 
  41   2.0000      -0.564962       -15.3734 
  42   2.0000      -0.562582       -15.3086 
  43   2.0000      -0.557570       -15.1723 
  44   2.0000      -0.541922       -14.7464 
  45   2.0000      -0.523990       -14.2585 
  46   2.0000      -0.521677       -14.1955 
  47   2.0000      -0.513346       -13.9689 
  48   2.0000      -0.505148       -13.7458 
  49   2.0000      -0.496796       -13.5185 
  50   2.0000      -0.493763       -13.4360 
  51   2.0000      -0.478871       -13.0307 
  52   2.0000      -0.468441       -12.7469 
  53   2.0000      -0.466697       -12.6995 
  54   2.0000      -0.453996       -12.3539 
  55   2.0000      -0.450062       -12.2468 
  56   2.0000      -0.449211       -12.2237 
  57   2.0000      -0.440077       -11.9751 
  58   2.0000      -0.435088       -11.8394 
  59   2.0000      -0.429122       -11.6770 
  60   2.0000      -0.424657       -11.5555 
  61   2.0000      -0.414705       -11.2847 
  62   2.0000      -0.411924       -11.2090 
  63   2.0000      -0.350835        -9.5467 
  64   2.0000      -0.330519        -8.9939 
  65   2.0000      -0.328619        -8.9422 
  66   2.0000      -0.287934        -7.8351 
  67   0.0000       0.026983         0.7342 
  68   0.0000       0.076137         2.0718 
  69   0.0000       0.101463         2.7610 
  70   0.0000       0.114512         3.1160 
  71   0.0000       0.131571         3.5802 
  72   0.0000       0.143076         3.8933 
  73   0.0000       0.156993         4.2720 
  74   0.0000       0.160217         4.3597 
  75   0.0000       0.164396         4.4734 
  76   0.0000       0.170747         4.6463 
  77   0.0000       0.184190         5.0121 
  78   0.0000       0.190171         5.1748 
  79   0.0000       0.195507         5.3200 
  80   0.0000       0.203259         5.5310 
  81   0.0000       0.209137         5.6909 
  82   0.0000       0.212653         5.7866 
  83   0.0000       0.216600         5.8940 
  84   0.0000       0.226409         6.1609 
  85   0.0000       0.227268         6.1843 
  86   0.0000       0.234262         6.3746 
  87   0.0000       0.247839         6.7440 
  88   0.0000       0.248215         6.7543 
  89   0.0000       0.253338         6.8937 
  90   0.0000       0.259638         7.0651 
  91   0.0000       0.261475         7.1151 
  92   0.0000       0.281351         7.6559 
  93   0.0000       0.299178         8.1411 
  94   0.0000       0.304120         8.2755 
  95   0.0000       0.320280         8.7153 
  96   0.0000       0.325218         8.8496 
  97   0.0000       0.338678         9.2159 
  98   0.0000       0.344035         9.3617 
  99   0.0000       0.372294        10.1306 
 100   0.0000       0.374229        10.1833 
 101   0.0000       0.390149        10.6165 
 102   0.0000       0.413651        11.2560 
 103   0.0000       0.419523        11.4158 
 104   0.0000       0.432050        11.7567 
 105   0.0000       0.456202        12.4139 
 106   0.0000       0.460525        12.5315 
 107   0.0000       0.483860        13.1665 
 108   0.0000       0.494285        13.4502 
 109   0.0000       0.501893        13.6572 
 110   0.0000       0.505149        13.7458 
 111   0.0000       0.509495        13.8641 
 112   0.0000       0.521797        14.1988 
 113   0.0000       0.524772        14.2798 
 114   0.0000       0.537668        14.6307 
 115   0.0000       0.544928        14.8282 
 116   0.0000       0.551308        15.0018 
 117   0.0000       0.558204        15.1895 
 118   0.0000       0.570678        15.5289 
 119   0.0000       0.575629        15.6637 
 120   0.0000       0.580791        15.8041 
 121   0.0000       0.599069        16.3015 
 122   0.0000       0.603017        16.4089 
 123   0.0000       0.611935        16.6516 
 124   0.0000       0.613536        16.6952 
 125   0.0000       0.637021        17.3342 
 126   0.0000       0.645550        17.5663 
 127   0.0000       0.654769        17.8172 
 128   0.0000       0.662977        18.0405 
 129   0.0000       0.669050        18.2058 
 130   0.0000       0.670529        18.2460 
 131   0.0000       0.683300        18.5935 
 132   0.0000       0.686695        18.6859 
 133   0.0000       0.692198        18.8357 
 134   0.0000       0.703504        19.1433 
 135   0.0000       0.703860        19.1530 
 136   0.0000       0.714081        19.4311 
 137   0.0000       0.724488        19.7143 
 138   0.0000       0.736535        20.0421 
 139   0.0000       0.738251        20.0888 
 140   0.0000       0.747145        20.3309 
 141   0.0000       0.749925        20.4065 
 142   0.0000       0.755445        20.5567 
 143   0.0000       0.759069        20.6553 
 144   0.0000       0.763490        20.7756 
 145   0.0000       0.769379        20.9359 
 146   0.0000       0.774928        21.0869 
 147   0.0000       0.777450        21.1555 
 148   0.0000       0.781187        21.2572 
 149   0.0000       0.785344        21.3703 
 150   0.0000       0.791168        21.5288 
 151   0.0000       0.791931        21.5495 
 152   0.0000       0.795270        21.6404 
 153   0.0000       0.802217        21.8294 
 154   0.0000       0.809530        22.0284 
 155   0.0000       0.811603        22.0848 
 156   0.0000       0.814186        22.1551 
 157   0.0000       0.817826        22.2542 
 158   0.0000       0.829153        22.5624 
 159   0.0000       0.831285        22.6204 
 160   0.0000       0.834729        22.7141 
 161   0.0000       0.843457        22.9516 
 162   0.0000       0.849997        23.1296 
 163   0.0000       0.853040        23.2124 
 164   0.0000       0.854953        23.2645 
 165   0.0000       0.869996        23.6738 
 166   0.0000       0.871792        23.7227 
 167   0.0000       0.889739        24.2110 
 168   0.0000       0.891072        24.2473 
 169   0.0000       0.902948        24.5705 
 170   0.0000       0.914463        24.8838 
 171   0.0000       0.919649        25.0249 
 172   0.0000       0.930240        25.3131 
 173   0.0000       0.943897        25.6847 
 174   0.0000       0.959850        26.1189 
 175   0.0000       0.969026        26.3685 
 176   0.0000       0.978767        26.6336 
 177   0.0000       0.992757        27.0143 
 178   0.0000       1.017743        27.6942 
 179   0.0000       1.030623        28.0447 
 180   0.0000       1.046521        28.4773 
 181   0.0000       1.075880        29.2762 
 182   0.0000       1.084238        29.5036 
 183   0.0000       1.100930        29.9578 
 184   0.0000       1.125344        30.6222 
 185   0.0000       1.148536        31.2532 
 186   0.0000       1.166922        31.7536 
 187   0.0000       1.172546        31.9066 
 188   0.0000       1.198845        32.6222 
 189   0.0000       1.205115        32.7928 
 190   0.0000       1.214368        33.0446 
 191   0.0000       1.221179        33.2300 
 192   0.0000       1.251055        34.0429 
 193   0.0000       1.261409        34.3247 
 194   0.0000       1.283586        34.9281 
 195   0.0000       1.302575        35.4449 
 196   0.0000       1.320765        35.9399 
 197   0.0000       1.340209        36.4689 
 198   0.0000       1.353319        36.8257 
 199   0.0000       1.362551        37.0769 
 200   0.0000       1.379492        37.5379 
 201   0.0000       1.394957        37.9587 
 202   0.0000       1.430495        38.9257 
 203   0.0000       1.440787        39.2058 
 204   0.0000       1.450034        39.4574 
 205   0.0000       1.472348        40.0646 
 206   0.0000       1.487190        40.4685 
 207   0.0000       1.501012        40.8446 
 208   0.0000       1.547157        42.1003 
 209   0.0000       1.569938        42.7202 
 210   0.0000       1.582496        43.0619 
 211   0.0000       1.602015        43.5931 
 212   0.0000       1.625174        44.2232 
 213   0.0000       1.628295        44.3082 
 214   0.0000       1.655546        45.0497 
 215   0.0000       1.672412        45.5086 
 216   0.0000       1.678598        45.6770 
 217   0.0000       1.707719        46.4694 
 218   0.0000       1.761351        47.9288 
 219   0.0000       1.769391        48.1476 
 220   0.0000       1.775162        48.3046 
 221   0.0000       1.787332        48.6358 
 222   0.0000       1.800465        48.9931 
 223   0.0000       1.812806        49.3289 
 224   0.0000       1.824310        49.6420 
 225   0.0000       1.834734        49.9256 
 226   0.0000       1.840143        50.0728 
 227   0.0000       1.847134        50.2631 
 228   0.0000       1.860037        50.6142 
 229   0.0000       1.864988        50.7489 
 230   0.0000       1.874610        51.0107 
 231   0.0000       1.877968        51.1021 
 232   0.0000       1.884097        51.2689 
 233   0.0000       1.897346        51.6294 
 234   0.0000       1.909563        51.9618 
 235   0.0000       1.911738        52.0210 
 236   0.0000       1.925618        52.3987 
 237   0.0000       1.926227        52.4153 
 238   0.0000       1.934933        52.6522 
 239   0.0000       1.947443        52.9926 
 240   0.0000       1.952432        53.1284 
 241   0.0000       1.956886        53.2496 
 242   0.0000       1.957254        53.2596 
 243   0.0000       1.969733        53.5992 
 244   0.0000       1.981863        53.9292 
 245   0.0000       1.985399        54.0255 
 246   0.0000       2.006618        54.6029 
 247   0.0000       2.018033        54.9135 
 248   0.0000       2.021760        55.0149 
 249   0.0000       2.031917        55.2913 
 250   0.0000       2.036781        55.4236 
 251   0.0000       2.056051        55.9480 
 252   0.0000       2.067773        56.2670 
 253   0.0000       2.077409        56.5292 
 254   0.0000       2.099396        57.1275 
 255   0.0000       2.108086        57.3639 
 256   0.0000       2.115067        57.5539 
 257   0.0000       2.134641        58.0865 
 258   0.0000       2.167133        58.9707 
 259   0.0000       2.173023        59.1310 
 260   0.0000       2.179640        59.3110 
 261   0.0000       2.190702        59.6120 
 262   0.0000       2.202682        59.9380 
 263   0.0000       2.208213        60.0885 
 264   0.0000       2.219220        60.3881 
 265   0.0000       2.242296        61.0160 
 266   0.0000       2.263096        61.5820 
 267   0.0000       2.284717        62.1703 
 268   0.0000       2.296416        62.4887 
 269   0.0000       2.337322        63.6018 
 270   0.0000       2.345301        63.8189 
 271   0.0000       2.361940        64.2716 
 272   0.0000       2.365640        64.3723 
 273   0.0000       2.386979        64.9530 
 274   0.0000       2.411268        65.6139 
 275   0.0000       2.421144        65.8827 
 276   0.0000       2.441177        66.4278 
 277   0.0000       2.451302        66.7033 
 278   0.0000       2.463581        67.0374 
 279   0.0000       2.493220        67.8440 
 280   0.0000       2.499602        68.0176 
 281   0.0000       2.510912        68.3254 
 282   0.0000       2.543411        69.2097 
 283   0.0000       2.554058        69.4995 
 284   0.0000       2.565136        69.8009 
 285   0.0000       2.579898        70.2026 
 286   0.0000       2.582618        70.2766 
 287   0.0000       2.595196        70.6189 
 288   0.0000       2.611350        71.0584 
 289   0.0000       2.628865        71.5351 
 290   0.0000       2.646218        72.0072 
 291   0.0000       2.654219        72.2250 
 292   0.0000       2.667492        72.5861 
 293   0.0000       2.693814        73.3024 
 294   0.0000       2.699481        73.4566 
 295   0.0000       2.741039        74.5875 
 296   0.0000       2.760067        75.1052 
 297   0.0000       2.790023        75.9204 
 298   0.0000       2.808599        76.4259 
 299   0.0000       2.814881        76.5968 
 300   0.0000       2.875363        78.2426 
 301   0.0000       2.883503        78.4641 
 302   0.0000       2.911886        79.2365 
 303   0.0000       2.947775        80.2130 
 304   0.0000       2.967208        80.7418 
 305   0.0000       2.983938        81.1971 
 306   0.0000       3.014677        82.0335 
 307   0.0000       3.027192        82.3741 
 308   0.0000       3.050153        82.9989 
 309   0.0000       3.056852        83.1812 
 310   0.0000       3.079808        83.8058 
 311   0.0000       3.098521        84.3150 
 312   0.0000       3.119951        84.8982 
 313   0.0000       3.131439        85.2108 
 314   0.0000       3.140631        85.4609 
 315   0.0000       3.199277        87.0568 
 316   0.0000       3.210090        87.3510 
 317   0.0000       3.237301        88.0914 
 318   0.0000       3.257194        88.6328 
 319   0.0000       3.309501        90.0561 
 320   0.0000       3.372081        91.7590 
 321   0.0000       3.488372        94.9234 

                    ********************************
                    * MULLIKEN POPULATION ANALYSIS *
                    ********************************

-----------------------
MULLIKEN ATOMIC CHARGES
-----------------------
   0 S :    0.110048
   1 C :   -0.155886
   2 C :   -0.075212
   3 C :    0.008402
   4 C :   -0.135624
   5 H :    0.002708
   6 C :    0.111553
   7 H :    0.031121
   8 H :    0.008211
   9 C :   -0.116172
  10 H :    0.043398
  11 H :    0.040471
  12 C :   -0.028887
  13 H :    0.023097
  14 H :    0.030580
  15 H :    0.022132
  16 S :    0.095120
  17 C :   -0.043814
  18 C :   -0.030399
  19 C :   -0.074039
  20 C :   -0.130055
  21 H :    0.005502
  22 C :    0.093992
  23 H :    0.028854
  24 H :    0.012037
  25 C :   -0.038646
  26 H :    0.032535
  27 H :   -0.011654
  28 C :   -0.070123
  29 H :    0.043733
  30 H :    0.034071
  31 H :    0.042664
  32 H :    0.070094
  33 H :    0.020185
Sum of atomic charges:   -0.0000000

--------------------------------
MULLIKEN REDUCED ORBITAL CHARGES
--------------------------------
  0 S s       :     5.848659  s :     5.848659
      pz      :     3.079565  p :     9.938372
      px      :     3.635025
      py      :     3.223782
      dz2     :     0.038832  d :     0.102920
      dxz     :     0.015709
      dyz     :     0.014717
      dx2y2   :     0.017851
      dxy     :     0.015811
  1 C s       :     3.215922  s :     3.215922
      pz      :     0.983564  p :     2.908580
      px      :     1.068290
      py      :     0.856726
      dz2     :     0.008726  d :     0.031384
      dxz     :     0.005078
      dyz     :     0.006596
      dx2y2   :     0.005426
      dxy     :     0.005559
  2 C s       :     3.108779  s :     3.108779
      pz      :     0.957795  p :     2.923418
      px      :     1.004043
      py      :     0.961580
      dz2     :     0.008699  d :     0.043015
      dxz     :     0.007117
      dyz     :     0.014837
      dx2y2   :     0.005555
      dxy     :     0.006808
  3 C s       :     3.193004  s :     3.193004
      pz      :     0.824338  p :     2.766872
      px      :     1.026570
      py      :     0.915965
      dz2     :     0.008582  d :     0.031722
      dxz     :     0.003204
      dyz     :     0.008755
      dx2y2   :     0.005243
      dxy     :     0.005937
  4 C s       :     3.054894  s :     3.054894
      pz      :     0.940394  p :     3.036805
      px      :     1.071567
      py      :     1.024844
      dz2     :     0.012889  d :     0.043926
      dxz     :     0.006486
      dyz     :     0.010800
      dx2y2   :     0.005880
      dxy     :     0.007870
  5 H s       :     0.972852  s :     0.972852
      pz      :     0.015116  p :     0.024440
      px      :     0.005768
      py      :     0.003555
  6 C s       :     2.918533  s :     2.918533
      pz      :     0.990713  p :     2.933379
      px      :     0.977771
      py      :     0.964895
      dz2     :     0.010178  d :     0.036535
      dxz     :     0.004447
      dyz     :     0.003927
      dx2y2   :     0.007626
      dxy     :     0.010356
  7 H s       :     0.945810  s :     0.945810
      pz      :     0.006492  p :     0.023070
      px      :     0.007486
      py      :     0.009092
  8 H s       :     0.966414  s :     0.966414
      pz      :     0.015421  p :     0.025375
      px      :     0.004411
      py      :     0.005542
  9 C s       :     3.102660  s :     3.102660
      pz      :     1.019309  p :     2.978764
      px      :     0.978499
      py      :     0.980955
      dz2     :     0.009192  d :     0.034748
      dxz     :     0.004678
      dyz     :     0.004396
      dx2y2   :     0.007688
      dxy     :     0.008795
 10 H s       :     0.935493  s :     0.935493
      pz      :     0.013338  p :     0.021109
      px      :     0.003520
      py      :     0.004252
 11 H s       :     0.937278  s :     0.937278
      pz      :     0.005717  p :     0.022251
      px      :     0.006606
      py      :     0.009929
 12 C s       :     2.987601  s :     2.987601
      pz      :     1.040488  p :     3.012679
      px      :     1.001211
      py      :     0.970980
      dz2     :     0.007375  d :     0.028607
      dxz     :     0.005311
      dyz     :     0.003498
      dx2y2   :     0.005491
      dxy     :     0.006932
 13 H s       :     0.951868  s :     0.951868
      pz      :     0.014061  p :     0.025035
      px      :     0.006619
      py      :     0.004355
 14 H s       :     0.945983  s :     0.945983
      pz      :     0.005528  p :     0.023437
      px      :     0.008492
      py      :     0.009416
 15 H s       :     0.952197  s :     0.952197
      pz      :     0.008372  p :     0.025670
      px      :     0.012214
      py      :     0.005085
 16 S s       :     5.847906  s :     5.847906
      pz      :     3.381944  p :     9.942284
      px      :     3.565319
      py      :     2.995021
      dz2     :     0.017906  d :     0.114690
      dxz     :     0.013885
      dyz     :     0.036954
      dx2y2   :     0.014822
      dxy     :     0.031123
 17 C s       :     3.118835  s :     3.118835
      pz      :     0.934163  p :     2.888876
      px      :     1.042687
      py      :     0.912026
      dz2     :     0.009742  d :     0.036104
      dxz     :     0.005491
      dyz     :     0.009091
      dx2y2   :     0.006857
      dxy     :     0.004923
 18 C s       :     3.174678  s :     3.174678
      pz      :     0.896660  p :     2.820064
      px      :     0.978070
      py      :     0.945333
      dz2     :     0.006596  d :     0.035657
      dxz     :     0.004856
      dyz     :     0.010594
      dx2y2   :     0.006574
      dxy     :     0.007037
 19 C s       :     3.048988  s :     3.048988
      pz      :     1.001683  p :     2.979590
      px      :     1.015977
      py      :     0.961930
      dz2     :     0.011445  d :     0.045460
      dxz     :     0.007732
      dyz     :     0.009117
      dx2y2   :     0.009301
      dxy     :     0.007865
 20 C s       :     3.045566  s :     3.045566
      pz      :     1.062046  p :     3.036586
      px      :     1.036173
      py      :     0.938367
      dz2     :     0.009991  d :     0.047903
      dxz     :     0.006801
      dyz     :     0.013896
      dx2y2   :     0.007129
      dxy     :     0.010087
 21 H s       :     0.969222  s :     0.969222
      pz      :     0.012150  p :     0.025276
      px      :     0.007576
      py      :     0.005550
 22 C s       :     2.954243  s :     2.954243
      pz      :     0.969897  p :     2.914897
      px      :     0.991529
      py      :     0.953471
      dz2     :     0.008763  d :     0.036868
      dxz     :     0.005356
      dyz     :     0.009032
      dx2y2   :     0.005188
      dxy     :     0.008528
 23 H s       :     0.949158  s :     0.949158
      pz      :     0.006123  p :     0.021988
      px      :     0.004276
      py      :     0.011589
 24 H s       :     0.961132  s :     0.961132
      pz      :     0.005431  p :     0.026831
      px      :     0.012964
      py      :     0.008436
 25 C s       :     2.994493  s :     2.994493
      pz      :     0.993438  p :     3.005798
      px      :     0.995446
      py      :     1.016914
      dz2     :     0.007512  d :     0.038355
      dxz     :     0.008190
      dyz     :     0.007981
      dx2y2   :     0.008741
      dxy     :     0.005932
 26 H s       :     0.945936  s :     0.945936
      pz      :     0.005749  p :     0.021528
      px      :     0.008702
      py      :     0.007076
 27 H s       :     0.983893  s :     0.983893
      pz      :     0.007948  p :     0.027760
      px      :     0.005737
      py      :     0.014075
 28 C s       :     3.028729  s :     3.028729
      pz      :     1.022148  p :     3.014111
      px      :     0.975630
      py      :     1.016333
      dz2     :     0.007650  d :     0.027283
      dxz     :     0.004768
      dyz     :     0.002023
      dx2y2   :     0.007307
      dxy     :     0.005536
 29 H s       :     0.934707  s :     0.934707
      pz      :     0.004986  p :     0.021560
      px      :     0.003682
      py      :     0.012892
 30 H s       :     0.941745  s :     0.941745
      pz      :     0.013992  p :     0.024184
      px      :     0.005106
      py      :     0.005086
 31 H s       :     0.932969  s :     0.932969
      pz      :     0.007804  p :     0.024367
      px      :     0.009708
      py      :     0.006855
 32 H s       :     0.907488  s :     0.907488
      pz      :     0.011728  p :     0.022418
      px      :     0.006868
      py      :     0.003821
 33 H s       :     0.953371  s :     0.953371
      pz      :     0.004307  p :     0.026444
      px      :     0.005819
      py      :     0.016318


                     *******************************
                     * LOEWDIN POPULATION ANALYSIS *
                     *******************************

----------------------
LOEWDIN ATOMIC CHARGES
----------------------
   0 S :    0.390101
   1 C :   -0.194756
   2 C :   -0.056267
   3 C :   -0.069173
   4 C :   -0.193931
   5 H :    0.027931
   6 C :   -0.034006
   7 H :    0.033340
   8 H :    0.026161
   9 C :   -0.042528
  10 H :    0.031125
  11 H :    0.029845
  12 C :   -0.069340
  13 H :    0.023211
  14 H :    0.028639
  15 H :    0.023634
  16 S :    0.419418
  17 C :   -0.163702
  18 C :   -0.060533
  19 C :   -0.062074
  20 C :   -0.208974
  21 H :    0.024688
  22 C :   -0.019659
  23 H :    0.030377
  24 H :    0.022688
  25 C :   -0.033144
  26 H :    0.031710
  27 H :    0.003344
  28 C :   -0.068702
  29 H :    0.028754
  30 H :    0.028237
  31 H :    0.026820
  32 H :    0.034456
  33 H :    0.012310

-------------------------------
LOEWDIN REDUCED ORBITAL CHARGES
-------------------------------
  0 S s       :     5.523198  s :     5.523198
      pz      :     3.123855  p :     9.959617
      px      :     3.597989
      py      :     3.237772
      dz2     :     0.051527  d :     0.127084
      dxz     :     0.018091
      dyz     :     0.017717
      dx2y2   :     0.021373
      dxy     :     0.018376
  1 C s       :     2.954918  s :     2.954918
      pz      :     1.080397  p :     3.166562
      px      :     1.096540
      py      :     0.989625
      dz2     :     0.021755  d :     0.073276
      dxz     :     0.010299
      dyz     :     0.018056
      dx2y2   :     0.011809
      dxy     :     0.011357
  2 C s       :     2.870150  s :     2.870150
      pz      :     1.059439  p :     3.079918
      px      :     0.980913
      py      :     1.039566
      dz2     :     0.023057  d :     0.106199
      dxz     :     0.015109
      dyz     :     0.041719
      dx2y2   :     0.011956
      dxy     :     0.014359
  3 C s       :     2.880965  s :     2.880965
      pz      :     1.039833  p :     3.105575
      px      :     1.036508
      py      :     1.029234
      dz2     :     0.022899  d :     0.082633
      dxz     :     0.006191
      dyz     :     0.026971
      dx2y2   :     0.013723
      dxy     :     0.012848
  4 C s       :     2.917028  s :     2.917028
      pz      :     1.012823  p :     3.172541
      px      :     1.065652
      py      :     1.094066
      dz2     :     0.031007  d :     0.104362
      dxz     :     0.013105
      dyz     :     0.028803
      dx2y2   :     0.015400
      dxy     :     0.016047
  5 H s       :     0.899957  s :     0.899957
      pz      :     0.043072  p :     0.072112
      px      :     0.017262
      py      :     0.011778
  6 C s       :     2.815305  s :     2.815305
      pz      :     1.064926  p :     3.126194
      px      :     1.034934
      py      :     1.026334
      dz2     :     0.026849  d :     0.092506
      dxz     :     0.010733
      dyz     :     0.009991
      dx2y2   :     0.019998
      dxy     :     0.024935
  7 H s       :     0.899432  s :     0.899432
      pz      :     0.017040  p :     0.067229
      px      :     0.023347
      py      :     0.026841
  8 H s       :     0.898934  s :     0.898934
      pz      :     0.043220  p :     0.074906
      px      :     0.015870
      py      :     0.015816
  9 C s       :     2.851936  s :     2.851936
      pz      :     1.054519  p :     3.107609
      px      :     1.022148
      py      :     1.030942
      dz2     :     0.022975  d :     0.082983
      dxz     :     0.010540
      dyz     :     0.010139
      dx2y2   :     0.018828
      dxy     :     0.020503
 10 H s       :     0.907620  s :     0.907620
      pz      :     0.037796  p :     0.061255
      px      :     0.012029
      py      :     0.011431
 11 H s       :     0.904363  s :     0.904363
      pz      :     0.015774  p :     0.065791
      px      :     0.020488
      py      :     0.029529
 12 C s       :     2.823616  s :     2.823616
      pz      :     1.087621  p :     3.173105
      px      :     1.059995
      py      :     1.025489
      dz2     :     0.018954  d :     0.072619
      dxz     :     0.013368
      dyz     :     0.007658
      dx2y2   :     0.013708
      dxy     :     0.018931
 13 H s       :     0.906635  s :     0.906635
      pz      :     0.038448  p :     0.070154
      px      :     0.017538
      py      :     0.014168
 14 H s       :     0.907172  s :     0.907172
      pz      :     0.014062  p :     0.064189
      px      :     0.022234
      py      :     0.027893
 15 H s       :     0.903242  s :     0.903242
      pz      :     0.022446  p :     0.073124
      px      :     0.034745
      py      :     0.015933
 16 S s       :     5.490738  s :     5.490738
      pz      :     3.393585  p :     9.947707
      px      :     3.548325
      py      :     3.005797
      dz2     :     0.020743  d :     0.142136
      dxz     :     0.015098
      dyz     :     0.047455
      dx2y2   :     0.018870
      dxy     :     0.039970
 17 C s       :     2.911354  s :     2.911354
      pz      :     1.034748  p :     3.166917
      px      :     1.066723
      py      :     1.065446
      dz2     :     0.022485  d :     0.085431
      dxz     :     0.012738
      dyz     :     0.023452
      dx2y2   :     0.015337
      dxy     :     0.011419
 18 C s       :     2.854066  s :     2.854066
      pz      :     1.048049  p :     3.112969
      px      :     1.025934
      py      :     1.038987
      dz2     :     0.016616  d :     0.093498
      dxz     :     0.012756
      dyz     :     0.029263
      dx2y2   :     0.017440
      dxy     :     0.017423
 19 C s       :     2.850248  s :     2.850248
      pz      :     1.047614  p :     3.097862
      px      :     1.008968
      py      :     1.041280
      dz2     :     0.029200  d :     0.113964
      dxz     :     0.019696
      dyz     :     0.025188
      dx2y2   :     0.021570
      dxy     :     0.018310
 20 C s       :     2.885745  s :     2.885745
      pz      :     1.102403  p :     3.204286
      px      :     1.083093
      py      :     1.018790
      dz2     :     0.025460  d :     0.118944
      dxz     :     0.016385
      dyz     :     0.038138
      dx2y2   :     0.015900
      dxy     :     0.023061
 21 H s       :     0.899359  s :     0.899359
      pz      :     0.034431  p :     0.075953
      px      :     0.022852
      py      :     0.018670
 22 C s       :     2.813087  s :     2.813087
      pz      :     1.023560  p :     3.114592
      px      :     1.050981
      py      :     1.040052
      dz2     :     0.021988  d :     0.091980
      dxz     :     0.013370
      dyz     :     0.021916
      dx2y2   :     0.012900
      dxy     :     0.021805
 23 H s       :     0.906071  s :     0.906071
      pz      :     0.019184  p :     0.063552
      px      :     0.012522
      py      :     0.031846
 24 H s       :     0.895099  s :     0.895099
      pz      :     0.018958  p :     0.082213
      px      :     0.038235
      py      :     0.025020
 25 C s       :     2.810836  s :     2.810836
      pz      :     1.030441  p :     3.128975
      px      :     1.023349
      py      :     1.075186
      dz2     :     0.020826  d :     0.093332
      dxz     :     0.017850
      dyz     :     0.018363
      dx2y2   :     0.020269
      dxy     :     0.016023
 26 H s       :     0.906384  s :     0.906384
      pz      :     0.017775  p :     0.061906
      px      :     0.026110
      py      :     0.018021
 27 H s       :     0.909402  s :     0.909402
      pz      :     0.026173  p :     0.087254
      px      :     0.019724
      py      :     0.041357
 28 C s       :     2.839399  s :     2.839399
      pz      :     1.074012  p :     3.160541
      px      :     1.030664
      py      :     1.055865
      dz2     :     0.019715  d :     0.068762
      dxz     :     0.011941
      dyz     :     0.005124
      dx2y2   :     0.018763
      dxy     :     0.013218
 29 H s       :     0.911685  s :     0.911685
      pz      :     0.012518  p :     0.059561
      px      :     0.010881
      py      :     0.036162
 30 H s       :     0.903392  s :     0.903392
      pz      :     0.039315  p :     0.068370
      px      :     0.015097
      py      :     0.013959
 31 H s       :     0.903865  s :     0.903865
      pz      :     0.020587  p :     0.069315
      px      :     0.029819
      py      :     0.018909
 32 H s       :     0.896076  s :     0.896076
      pz      :     0.034294  p :     0.069468
      px      :     0.021123
      py      :     0.014051
 33 H s       :     0.903137  s :     0.903137
      pz      :     0.016954  p :     0.084553
      px      :     0.019919
      py      :     0.047680


                      *****************************
                      * MAYER POPULATION ANALYSIS *
                      *****************************

  NA   - Mulliken gross atomic population
  ZA   - Total nuclear charge
  QA   - Mulliken gross atomic charge
  VA   - Mayer's total valence
  BVA  - Mayer's bonded valence
  FA   - Mayer's free valence

  ATOM       NA         ZA         QA         VA         BVA        FA
  0 S     15.8900    16.0000     0.1100     2.4777     2.4777    -0.0000
  1 C      6.1559     6.0000    -0.1559     3.8192     3.8192    -0.0000
  2 C      6.0752     6.0000    -0.0752     4.0040     4.0040    -0.0000
  3 C      5.9916     6.0000     0.0084     3.9216     3.9216     0.0000
  4 C      6.1356     6.0000    -0.1356     3.9065     3.9065    -0.0000
  5 H      0.9973     1.0000     0.0027     1.0164     1.0164    -0.0000
  6 C      5.8884     6.0000     0.1116     3.9197     3.9197    -0.0000
  7 H      0.9689     1.0000     0.0311     0.9847     0.9847     0.0000
  8 H      0.9918     1.0000     0.0082     0.9989     0.9989    -0.0000
  9 C      6.1162     6.0000    -0.1162     4.0860     4.0860     0.0000
 10 H      0.9566     1.0000     0.0434     0.9757     0.9757    -0.0000
 11 H      0.9595     1.0000     0.0405     0.9766     0.9766     0.0000
 12 C      6.0289     6.0000    -0.0289     3.9897     3.9897    -0.0000
 13 H      0.9769     1.0000     0.0231     0.9905     0.9905     0.0000
 14 H      0.9694     1.0000     0.0306     0.9920     0.9920     0.0000
 15 H      0.9779     1.0000     0.0221     0.9890     0.9890    -0.0000
 16 S     15.9049    16.0000     0.0951     2.4805     2.4805    -0.0000
 17 C      6.0438     6.0000    -0.0438     3.8578     3.8578    -0.0000
 18 C      6.0304     6.0000    -0.0304     3.9599     3.9599    -0.0000
 19 C      6.0740     6.0000    -0.0740     4.0301     4.0301     0.0000
 20 C      6.1301     6.0000    -0.1301     3.9361     3.9361    -0.0000
 21 H      0.9945     1.0000     0.0055     0.9977     0.9977    -0.0000
 22 C      5.9060     6.0000     0.0940     3.9721     3.9721    -0.0000
 23 H      0.9711     1.0000     0.0289     0.9977     0.9977     0.0000
 24 H      0.9880     1.0000     0.0120     0.9873     0.9873     0.0000
 25 C      6.0386     6.0000    -0.0386     4.0981     4.0981     0.0000
 26 H      0.9675     1.0000     0.0325     0.9797     0.9797     0.0000
 27 H      1.0117     1.0000    -0.0117     0.9881     0.9881     0.0000
 28 C      6.0701     6.0000    -0.0701     3.9967     3.9967    -0.0000
 29 H      0.9563     1.0000     0.0437     0.9837     0.9837    -0.0000
 30 H      0.9659     1.0000     0.0341     0.9859     0.9859     0.0000
 31 H      0.9573     1.0000     0.0427     0.9939     0.9939     0.0000
 32 H      0.9299     1.0000     0.0701     0.9976     0.9976    -0.0000
 33 H      0.9798     1.0000     0.0202     1.0034     1.0034    -0.0000

  Mayer bond orders larger than 0.100000
B(  0-S ,  1-C ) :   1.1240 B(  0-S ,  4-C ) :   1.1531 B(  1-C ,  2-C ) :   1.5988 
B(  1-C , 32-H ) :   0.9636 B(  2-C ,  3-C ) :   1.2195 B(  2-C ,  6-C ) :   1.0448 
B(  3-C ,  4-C ) :   1.5907 B(  3-C ,  5-H ) :   0.9835 B(  4-C , 20-C ) :   1.0141 
B(  6-C ,  7-H ) :   0.9177 B(  6-C ,  8-H ) :   0.9426 B(  6-C ,  9-C ) :   1.0540 
B(  9-C , 10-H ) :   0.9570 B(  9-C , 11-H ) :   0.9589 B(  9-C , 12-C ) :   1.0762 
B( 12-C , 13-H ) :   0.9746 B( 12-C , 14-H ) :   0.9740 B( 12-C , 15-H ) :   0.9739 
B( 16-S , 17-C ) :   1.1448 B( 16-S , 20-C ) :   1.1337 B( 17-C , 18-C ) :   1.6377 
B( 17-C , 33-H ) :   0.9763 B( 18-C , 19-C ) :   1.2066 B( 18-C , 21-H ) :   0.9954 
B( 19-C , 20-C ) :   1.6585 B( 19-C , 22-C ) :   1.0140 B( 22-C , 23-H ) :   0.9448 
B( 22-C , 24-H ) :   0.9338 B( 22-C , 25-C ) :   1.0779 B( 25-C , 26-H ) :   0.9514 
B( 25-C , 27-H ) :   0.9515 B( 25-C , 28-C ) :   1.0793 B( 28-C , 29-H ) :   0.9719 
B( 28-C , 30-H ) :   0.9735 B( 28-C , 31-H ) :   0.9709 

-------
TIMINGS
-------

Total SCF time: 0 days 0 hours 0 min 28 sec 

Total time                  ....      28.544 sec
Sum of individual times     ....      27.511 sec  ( 96.4%)

Fock matrix formation       ....      25.723 sec  ( 90.1%)
  XC integration            ....       1.807 sec  (  7.0% of F)
    Basis function eval.    ....       0.224 sec  ( 12.4% of XC)
    Density eval.           ....       0.163 sec  (  9.0% of XC)
    XC-Functional eval.     ....       0.193 sec  ( 10.7% of XC)
    XC-Potential eval.      ....       0.202 sec  ( 11.2% of XC)
Diagonalization             ....       0.134 sec  (  0.5%)
Density matrix formation    ....       0.018 sec  (  0.1%)
Population analysis         ....       0.048 sec  (  0.2%)
Initial guess               ....       0.201 sec  (  0.7%)
Orbital Transformation      ....       0.000 sec  (  0.0%)
Orbital Orthonormalization  ....       0.000 sec  (  0.0%)
DIIS solution               ....       0.148 sec  (  0.5%)
SOSCF solution              ....       0.128 sec  (  0.4%)
Grid generation             ....       1.111 sec  (  3.9%)


-------------------------------------------------------------------------------
                          DFT DISPERSION CORRECTION                            
                                                                               
                              DFTD3 V3.1  Rev 1                                
                              USING zero damping                               
-------------------------------------------------------------------------------
The omegaB97X-D3 functional is recognized. Fit by Chai et al.
Active option DFTDOPT                   ...         3   

molecular C6(AA) [au] = 14161.460714 


            DFT-D V3
 parameters
 s6 scaling factor         :     1.0000 
 rs6 scaling factor        :     1.2810 
 s8 scaling factor         :     1.0000 
 rs8 scaling factor        :     1.0940 
 Damping factor alpha6     :    14.0000 
 Damping factor alpha8     :    16.0000 
 ad hoc parameters k1-k3   :    16.0000     1.3333    -4.0000 

 Edisp/kcal,au: -9.023577406252  -0.014379984393 
 E6   /kcal   :  -4.130198096 
 E8   /kcal   :  -4.893379310 
 % E8         :  54.228817350 

-------------------------   ----------------
Dispersion correction           -0.014379984
-------------------------   ----------------


-------------------------   --------------------
FINAL SINGLE POINT ENERGY     -1339.856494820840
-------------------------   --------------------


                            ***************************************
                            *     ORCA property calculations      *
                            ***************************************

                                    ---------------------
                                    Active property flags
                                    ---------------------
   (+) Dipole Moment


------------------------------------------------------------------------------
                       ORCA ELECTRIC PROPERTIES CALCULATION
------------------------------------------------------------------------------

Dipole Moment Calculation                       ... on
Quadrupole Moment Calculation                   ... off
Polarizability Calculation                      ... off
GBWName                                         ... config_3058.gbw
Electron density file                           ... config_3058.scfp
The origin for moment calculation is the CENTER OF MASS  = (83.283512, 29.370204 157.040094)

-------------
DIPOLE MOMENT
-------------
                                X             Y             Z
Electronic contribution:      5.01003     -23.23971     -15.50573
Nuclear contribution   :     -4.99567      23.52422      16.04006
                        -----------------------------------------
Total Dipole Moment    :      0.01435       0.28451       0.53434
                        -----------------------------------------
Magnitude (a.u.)       :      0.60553
Magnitude (Debye)      :      1.53914



--------------------
Rotational spectrum 
--------------------
 
Rotational constants in cm-1:     0.019746     0.008359     0.006477 
Rotational constants in MHz :   591.957965   250.609050   194.187037 

 Dipole components along the rotational axes: 
x,y,z [a.u.] :    -0.011387     0.604192     0.038587 
x,y,z [Debye]:    -0.028943     1.535734     0.098081 

 

Timings for individual modules:

Sum of individual times         ...       29.855 sec (=   0.498 min)
GTO integral calculation        ...        0.942 sec (=   0.016 min)   3.2 %
SCF iterations                  ...       28.913 sec (=   0.482 min)  96.8 %
                             ****ORCA TERMINATED NORMALLY****
TOTAL RUN TIME: 0 days 0 hours 0 minutes 30 seconds 753 msec
