
                                 *****************
                                 * O   R   C   A *
                                 *****************

           --- An Ab Initio, DFT and Semiempirical electronic structure package ---

                  #######################################################
                  #                        -***-                        #
                  #          Department of theory and spectroscopy      #
                  #               Directorship: Frank Neese             #
                  #        Max Planck Institute fuer Kohlenforschung    #
                  #                Kaiser Wilhelm Platz 1               #
                  #                 D-45470 Muelheim/Ruhr               #
                  #                      Germany                        #
                  #                                                     #
                  #                  All rights reserved                #
                  #                        -***-                        #
                  #######################################################


                         Program Version 4.2.1 -  RELEASE  -


 With contributions from (in alphabetic order):
   Daniel Aravena         : Magnetic Suceptibility
   Michael Atanasov       : Ab Initio Ligand Field Theory (pilot matlab implementation)
   Alexander A. Auer      : GIAO ZORA, VPT2
   Ute Becker             : Parallelization
   Giovanni Bistoni       : ED, misc. LED, open-shell LED, HFLD
   Martin Brehm           : Molecular dynamics
   Dmytro Bykov           : SCF Hessian
   Vijay G. Chilkuri      : MRCI spin determinant printing, contributions to CSF-ICE
   Dipayan Datta          : RHF DLPNO-CCSD density
   Achintya Kumar Dutta   : EOM-CC, STEOM-CC
   Dmitry Ganyushin       : Spin-Orbit,Spin-Spin,Magnetic field MRCI
   Miquel Garcia          : C-PCM Hessian, Gaussian charge scheme
   Yang Guo               : DLPNO-NEVPT2, CIM, IAO-localization
   Andreas Hansen         : Spin unrestricted coupled pair/coupled cluster methods
   Benjamin Helmich-Paris : CASSCF linear response (MC-RPA)
   Lee Huntington         : MR-EOM, pCC
   Robert Izsak           : Overlap fitted RIJCOSX, COSX-SCS-MP3, EOM
   Christian Kollmar      : KDIIS, OOCD, Brueckner-CCSD(T), CCSD density
   Simone Kossmann        : Meta GGA functionals, TD-DFT gradient, OOMP2, MP2 Hessian
   Martin Krupicka        : AUTO-CI
   Lucas Lang             : DCDCAS
   Dagmar Lenk            : GEPOL surface, SMD
   Dimitrios Liakos       : Extrapolation schemes; Compound Job, initial MDCI parallelization
   Dimitrios Manganas     : Further ROCIS development; embedding schemes
   Dimitrios Pantazis     : SARC Basis sets
   Taras Petrenko         : DFT Hessian,TD-DFT gradient, ASA, ECA, R-Raman, ABS, FL, XAS/XES, NRVS
   Peter Pinski           : DLPNO-MP2, DLPNO-MP2 Gradient
   Christoph Reimann      : Effective Core Potentials
   Marius Retegan         : Local ZFS, SOC
   Christoph Riplinger    : Optimizer, TS searches, QM/MM, DLPNO-CCSD(T), (RO)-DLPNO pert. Triples
   Tobias Risthaus        : Range-separated hybrids, TD-DFT gradient, RPA, STAB
   Michael Roemelt        : Original ROCIS implementation
   Masaaki Saitow         : Open-shell DLPNO-CCSD energy and density
   Barbara Sandhoefer     : DKH picture change effects
   Avijit Sen             : IP-ROCIS
   Kantharuban Sivalingam : CASSCF convergence, NEVPT2, FIC-MRCI
   Bernardo de Souza      : ESD, SOC TD-DFT
   Georgi Stoychev        : AutoAux, RI-MP2 NMR
   Willem Van den Heuvel  : Paramagnetic NMR
   Boris Wezisla          : Elementary symmetry handling
   Frank Wennmohs         : Technical directorship


 We gratefully acknowledge several colleagues who have allowed us to
 interface, adapt or use parts of their codes:
   Stefan Grimme, W. Hujo, H. Kruse,             : VdW corrections, initial TS optimization,
                  C. Bannwarth                     DFT functionals, gCP, sTDA/sTD-DF
   Ed Valeev, F. Pavosevic, A. Kumar             : LibInt (2-el integral package), F12 methods
   Garnet Chan, S. Sharma, J. Yang, R. Olivares  : DMRG
   Ulf Ekstrom                                   : XCFun DFT Library
   Mihaly Kallay                                 : mrcc  (arbitrary order and MRCC methods)
   Andreas Klamt, Michael Diedenhofen            : otool_cosmo (COSMO solvation model)
   Jiri Pittner, Ondrej Demel                    : Mk-CCSD
   Frank Weinhold                                : gennbo (NPA and NBO analysis)
   Christopher J. Cramer and Donald G. Truhlar   : smd solvation model
   Lars Goerigk                                  : TD-DFT with DH, B97 family of functionals
   V. Asgeirsson, H. Jonsson                     : NEB implementation
   FAccTs GmbH                                   : IRC, NEB, NEB-TS, Multilevel, MM, QM/MM, CI optimization
   S Lehtola, MJT Oliveira, MAL Marques          : LibXC Library


 Your calculation uses the libint2 library for the computation of 2-el integrals
 For citations please refer to: http://libint.valeyev.net

 Your ORCA version has been built with support for libXC version: 4.2.3
 For citations please refer to: https://tddft.org/programs/libxc/

 This ORCA versions uses:
   CBLAS   interface :  Fast vector & matrix operations
   LAPACKE interface :  Fast linear algebra routines
   SCALAPACK package :  Parallel linear algebra routines


Your calculation utilizes the atom-pairwise dispersion correction
with the zero-damping scheme (D30)
Cite in your paper:
S.Grimme, J.Antony, S.Ehrlich and H.Krieg, J.Chem.Phys., 132, (2010), 154104 
   

XCFun DFT library Copyright 2009-2010 Ulf Ekstrom and contributors.
See http://admol.org/xcfun for more information. This is free soft-
ware; see the source code for copying conditions. There is ABSOLUTELY
NO WARRANTY; not even for MERCHANTABILITY or FITNESS FOR A PARTICULAR
PURPOSE. For details see the documentation. Scientific users of this 
library should cite U. Ekstrom, L. Visscher, R. Bast, A. J. Thorvald-
sen and K. Ruud; J.Chem.Theor.Comp. 2010, DOI: 10.1021/ct100117s
XCFun Version 0.99 
----- Orbital basis set information -----
Your calculation utilizes the basis: def2-SVP
   F. Weigend and R. Ahlrichs, Phys. Chem. Chem. Phys. 7, 3297 (2005).

================================================================================
                                        WARNINGS
                       Please study these warnings very carefully!
================================================================================


INFO   : the flag for use of LIBINT has been found!

================================================================================
                                       INPUT FILE
================================================================================
NAME = config_8120.inp
|  1> ! wB97X-D3 SP def2-SVP
|  2> %pal
|  3> nprocs 16
|  4> end
|  5> 
|  6> * xyz 0 1
|  7> S 	 -70.9988 	 39.618 	 121.769 	 
|  8> C 	 -70.1649 	 40.6429 	 122.923 	 
|  9> C 	 -68.887 	 40.1995 	 123.229 	 
| 10> C 	 -68.5411 	 39.1723 	 122.278 	 
| 11> C 	 -69.6153 	 38.6535 	 121.557 	 
| 12> H 	 -67.5378 	 38.7397 	 122.33 	 
| 13> C 	 -67.8861 	 40.7516 	 124.192 	 
| 14> H 	 -68.3068 	 41.608 	 124.675 	 
| 15> H 	 -67.0023 	 41.0535 	 123.67 	 
| 16> C 	 -67.275 	 39.7822 	 125.22 	 
| 17> H 	 -68.0403 	 39.3614 	 125.787 	 
| 18> H 	 -66.8738 	 38.9547 	 124.613 	 
| 19> C 	 -66.082 	 40.4325 	 125.939 	 
| 20> H 	 -65.8095 	 39.736 	 126.738 	 
| 21> H 	 -65.2979 	 40.5832 	 125.241 	 
| 22> H 	 -66.3609 	 41.3302 	 126.348 	 
| 23> S 	 -69.7675 	 37.8043 	 118.919 	 
| 24> C 	 -69.2021 	 36.28 	 118.469 	 
| 25> C 	 -68.9091 	 35.5412 	 119.56 	 
| 26> C 	 -69.1147 	 36.2757 	 120.814 	 
| 27> C 	 -69.5707 	 37.5462 	 120.673 	 
| 28> H 	 -68.5668 	 34.4826 	 119.502 	 
| 29> C 	 -68.9906 	 35.591 	 122.124 	 
| 30> H 	 -69.6073 	 34.6942 	 122.213 	 
| 31> H 	 -69.4907 	 36.1282 	 122.885 	 
| 32> C 	 -67.5532 	 35.066 	 122.55 	 
| 33> H 	 -67.4025 	 34.0935 	 122.083 	 
| 34> H 	 -67.4957 	 34.8333 	 123.621 	 
| 35> C 	 -66.3416 	 35.8536 	 122.109 	 
| 36> H 	 -66.4391 	 36.9017 	 122.488 	 
| 37> H 	 -66.3703 	 35.9503 	 121.006 	 
| 38> H 	 -65.3497 	 35.388 	 122.44 	 
| 39> H 	 -70.5972 	 41.5689 	 123.331 	 
| 40> H 	 -69.0365 	 36.011 	 117.4 	 
| 41> *
| 42> 
| 43>                          ****END OF INPUT****
================================================================================

                       ****************************
                       * Single Point Calculation *
                       ****************************

---------------------------------
CARTESIAN COORDINATES (ANGSTROEM)
---------------------------------
  S    -70.998800   39.618000  121.769000
  C    -70.164900   40.642900  122.923000
  C    -68.887000   40.199500  123.229000
  C    -68.541100   39.172300  122.278000
  C    -69.615300   38.653500  121.557000
  H    -67.537800   38.739700  122.330000
  C    -67.886100   40.751600  124.192000
  H    -68.306800   41.608000  124.675000
  H    -67.002300   41.053500  123.670000
  C    -67.275000   39.782200  125.220000
  H    -68.040300   39.361400  125.787000
  H    -66.873800   38.954700  124.613000
  C    -66.082000   40.432500  125.939000
  H    -65.809500   39.736000  126.738000
  H    -65.297900   40.583200  125.241000
  H    -66.360900   41.330200  126.348000
  S    -69.767500   37.804300  118.919000
  C    -69.202100   36.280000  118.469000
  C    -68.909100   35.541200  119.560000
  C    -69.114700   36.275700  120.814000
  C    -69.570700   37.546200  120.673000
  H    -68.566800   34.482600  119.502000
  C    -68.990600   35.591000  122.124000
  H    -69.607300   34.694200  122.213000
  H    -69.490700   36.128200  122.885000
  C    -67.553200   35.066000  122.550000
  H    -67.402500   34.093500  122.083000
  H    -67.495700   34.833300  123.621000
  C    -66.341600   35.853600  122.109000
  H    -66.439100   36.901700  122.488000
  H    -66.370300   35.950300  121.006000
  H    -65.349700   35.388000  122.440000
  H    -70.597200   41.568900  123.331000
  H    -69.036500   36.011000  117.400000

----------------------------
CARTESIAN COORDINATES (A.U.)
----------------------------
  NO LB      ZA    FRAG     MASS         X           Y           Z
   0 S    16.0000    0    32.060  -134.168288   74.867170  230.110062
   1 C     6.0000    0    12.011  -132.592445   76.803950  232.290806
   2 C     6.0000    0    12.011  -130.177564   75.966046  232.869062
   3 C     6.0000    0    12.011  -129.523908   74.024919  231.071932
   4 C     6.0000    0    12.011  -131.553852   73.044529  229.709440
   5 H     1.0000    0     1.008  -127.627946   73.207424  231.170198
   6 C     6.0000    0    12.011  -128.286137   77.009364  234.688868
   7 H     1.0000    0     1.008  -129.081145   78.627725  235.601606
   8 H     1.0000    0     1.008  -126.615997   77.579872  233.702431
   9 C     6.0000    0    12.011  -127.131326   75.177463  236.631506
  10 H     1.0000    0     1.008  -128.577533   74.382266  237.702981
  11 H     1.0000    0     1.008  -126.373168   73.613715  235.484443
  12 C     6.0000    0    12.011  -124.876882   76.406352  237.990220
  13 H     1.0000    0     1.008  -124.361932   75.090158  239.500111
  14 H     1.0000    0     1.008  -123.395148   76.691134  236.671191
  15 H     1.0000    0     1.008  -125.403927   78.102759  238.763118
  16 S    16.0000    0    32.060  -131.841468   71.439774  224.724342
  17 C     6.0000    0    12.011  -130.773017   68.559264  223.873965
  18 C     6.0000    0    12.011  -130.219327   67.163134  225.935657
  19 C     6.0000    0    12.011  -130.607855   68.551138  228.305373
  20 C     6.0000    0    12.011  -131.469570   70.952035  228.038922
  21 H     1.0000    0     1.008  -129.572474   65.162670  225.826052
  22 C     6.0000    0    12.011  -130.373340   67.257243  230.780914
  23 H     1.0000    0     1.008  -131.538734   65.562536  230.949100
  24 H     1.0000    0     1.008  -131.318392   68.272404  232.218996
  25 C     6.0000    0    12.011  -127.657047   66.265137  231.585938
  26 H     1.0000    0     1.008  -127.372266   64.427378  230.703436
  27 H     1.0000    0     1.008  -127.548388   65.825397  233.609834
  28 C     6.0000    0    12.011  -125.367455   67.753485  230.752568
  29 H     1.0000    0     1.008  -125.551704   69.734107  231.468775
  30 H     1.0000    0     1.008  -125.421690   67.936221  228.668201
  31 H     1.0000    0     1.008  -123.493036   66.873628  231.378068
  32 H     1.0000    0     1.008  -133.409374   78.553837  233.061814
  33 H     1.0000    0     1.008  -130.460078   68.050928  221.853848

--------------------------------
INTERNAL COORDINATES (ANGSTROEM)
--------------------------------
 S      0   0   0     0.000000000000     0.00000000     0.00000000
 C      1   0   0     1.754287667402     0.00000000     0.00000000
 C      2   1   0     1.386819371800   113.35153355     0.00000000
 C      3   2   1     1.441938850992   107.65496783    11.84485417
 C      4   3   2     1.393879506988   114.92455820   344.58716449
 H      4   3   2     1.093827065856   118.06135042   176.67673970
 C      3   2   1     1.494651872511   129.87558868   182.63947245
 H      7   3   2     1.069438380647   108.86616509     0.50644127
 H      7   3   2     1.069920581165   110.06269083   241.55488306
 C      7   3   2     1.539468599875   117.61062572   127.85470169
 H     10   7   3     1.041271208668   109.04678798   301.83845066
 H     10   7   3     1.101892322326   104.45217603    54.01617950
 C     10   7   3     1.537237811791   110.73274107   168.90340100
 H     13  10   7     1.094426562178   105.39539232   172.09215617
 H     13  10   7     1.060531611976   109.02970983   293.38475799
 H     13  10   7     1.025149501292   110.23729862    54.02735754
 S      5   4   3     2.775490853885   130.37423402   143.96390957
 C     17   5   4     1.686910682283   120.77285423    79.84382823
 C     18  17   5     1.349798296043   110.59261895     9.77812190
 C     19  18  17     1.467745757957   112.72140358   357.94638050
 C     20  19  18     1.357198309018   115.26232384     0.69361859
 H     19  18  17     1.114076860006   123.00421654   176.89557933
 C     20  19  18     1.483345846389   120.78487179   173.25089818
 H     23  20  19     1.092011964220   113.81628200   306.62789079
 H     23  20  19     1.057262904863   111.19591707   200.46185454
 C     23  20  19     1.588464591988   117.71725774    66.67908327
 H     26  23  20     1.089291393521   107.77537351   276.60295975
 H     26  23  20     1.097495576301   112.28385981   164.07549716
 C     26  23  20     1.510883622256   118.36490897    33.13880663
 H     29  26  23     1.118776501362   108.63804043    57.37979915
 H     29  26  23     1.107602627299   108.38504016   304.18839166
 H     29  26  23     1.144644036371   113.48202113   181.37848947
 H      2   1   3     1.100374159093   123.28493378   177.56544430
 H     18  17   5     1.114695187035   121.57919742   194.31033292

---------------------------
INTERNAL COORDINATES (A.U.)
---------------------------
 S      0   0   0     0.000000000000     0.00000000     0.00000000
 C      1   0   0     3.315123251506     0.00000000     0.00000000
 C      2   1   0     2.620708809919   113.35153355     0.00000000
 C      3   2   1     2.724869530236   107.65496783    11.84485417
 C      4   3   2     2.634050531892   114.92455820   344.58716449
 H      4   3   2     2.067033592339   118.06135042   176.67673970
 C      3   2   1     2.824482704598   129.87558868   182.63947245
 H      7   3   2     2.020945656526   108.86616509     0.50644127
 H      7   3   2     2.021856883447   110.06269083   241.55488306
 C      7   3   2     2.909174045534   117.61062572   127.85470169
 H     10   7   3     1.967717415519   109.04678798   301.83845066
 H     10   7   3     2.082274718266   104.45217603    54.01617950
 C     10   7   3     2.904958466993   110.73274107   168.90340100
 H     13  10   7     2.068166476205   105.39539232   172.09215617
 H     13  10   7     2.004114303000   109.02970983   293.38475799
 H     13  10   7     1.937251803769   110.23729862    54.02735754
 S      5   4   3     5.244917601046   130.37423402   143.96390957
 C     17   5   4     3.187799201901   120.77285423    79.84382823
 C     18  17   5     2.550749115554   110.59261895     9.77812190
 C     19  18  17     2.773637516763   112.72140358   357.94638050
 C     20  19  18     2.564733113464   115.26232384     0.69361859
 H     19  18  17     2.105300157550   123.00421654   176.89557933
 C     20  19  18     2.803117411565   120.78487179   173.25089818
 H     23  20  19     2.063603547342   113.81628200   306.62789079
 H     23  20  19     1.997937341746   111.19591707   200.46185454
 C     23  20  19     3.001763052289   117.71725774    66.67908327
 H     26  23  20     2.058462413793   107.77537351   276.60295975
 H     26  23  20     2.073966072399   112.28385981   164.07549716
 C     26  23  20     2.855156266290   118.36490897    33.13880663
 H     29  26  23     2.114181192641   108.63804043    57.37979915
 H     29  26  23     2.093065630807   108.38504016   304.18839166
 H     29  26  23     2.163063749568   113.48202113   181.37848947
 H      2   1   3     2.079405805530   123.28493378   177.56544430
 H     18  17   5     2.106468626297   121.57919742   194.31033292

---------------------
BASIS SET INFORMATION
---------------------
There are 3 groups of distinct atoms

 Group   1 Type S   : 10s7p1d contracted to 4s3p1d pattern {5311/511/1}
 Group   2 Type C   : 7s4p1d contracted to 3s2p1d pattern {511/31/1}
 Group   3 Type H   : 4s1p contracted to 2s1p pattern {31/1}

Atom   0S    basis set group =>   1
Atom   1C    basis set group =>   2
Atom   2C    basis set group =>   2
Atom   3C    basis set group =>   2
Atom   4C    basis set group =>   2
Atom   5H    basis set group =>   3
Atom   6C    basis set group =>   2
Atom   7H    basis set group =>   3
Atom   8H    basis set group =>   3
Atom   9C    basis set group =>   2
Atom  10H    basis set group =>   3
Atom  11H    basis set group =>   3
Atom  12C    basis set group =>   2
Atom  13H    basis set group =>   3
Atom  14H    basis set group =>   3
Atom  15H    basis set group =>   3
Atom  16S    basis set group =>   1
Atom  17C    basis set group =>   2
Atom  18C    basis set group =>   2
Atom  19C    basis set group =>   2
Atom  20C    basis set group =>   2
Atom  21H    basis set group =>   3
Atom  22C    basis set group =>   2
Atom  23H    basis set group =>   3
Atom  24H    basis set group =>   3
Atom  25C    basis set group =>   2
Atom  26H    basis set group =>   3
Atom  27H    basis set group =>   3
Atom  28C    basis set group =>   2
Atom  29H    basis set group =>   3
Atom  30H    basis set group =>   3
Atom  31H    basis set group =>   3
Atom  32H    basis set group =>   3
Atom  33H    basis set group =>   3


           ************************************************************
           *        Program running with 16 parallel MPI-processes    *
           *              working on a common directory               *
           ************************************************************
------------------------------------------------------------------------------
                           ORCA GTO INTEGRAL CALCULATION
------------------------------------------------------------------------------

                         BASIS SET STATISTICS AND STARTUP INFO

 # of primitive gaussian shells          ...  294
 # of primitive gaussian functions       ...  534
 # of contracted shells                  ...  154
 # of contracted basis functions         ...  322
 Highest angular momentum                ...    2
 Maximum contraction depth               ...    5
 Integral package used                   ... LIBINT
 Integral threshhold            Thresh   ...  1.000e-10
 Primitive cut-off              TCut     ...  1.000e-11


------------------------------ INTEGRAL EVALUATION ----------------------------


 * One electron integrals 
 Pre-screening matrix                    ... done
 Shell pair data                         ... done (   0.003 sec)



           ************************************************************
           *        Program running with 16 parallel MPI-processes    *
           *              working on a common directory               *
           ************************************************************
-------------------------------------------------------------------------------
                                 ORCA SCF
-------------------------------------------------------------------------------

------------
SCF SETTINGS
------------
Hamiltonian:
 Density Functional     Method          .... DFT(GTOs)
 Exchange Functional    Exchange        .... WB97X-D3
 Correlation Functional Correlation     .... WB97X-D3
 Gradients option       PostSCFGGA      .... off
 Hybrid DFT is turned on
   Fraction HF Exchange ScalHFX         ....  0.195728
   Scaling of DF-GGA-X  ScalDFX         ....  0.000000
   Scaling of DF-GGA-C  ScalDFC         ....  1.000000
   Scaling of DF-LDA-C  ScalLDAC        ....  1.000000
   Perturbative correction              ....  0.000000
   Density functional embedding theory  .... OFF
 Long-range corrected/Screened/Range-Separated Hybrid DFT is turned on
   Amount of maximum screened exact exchange              ....  0.804272
   Range separation parameter mu (erf(mu*r12)/r12)        ....  0.250000


General Settings:
 Integral files         IntName         .... config_8120
 Hartree-Fock type      HFTyp           .... RHF
 Total Charge           Charge          ....    0
 Multiplicity           Mult            ....    1
 Number of Electrons    NEL             ....  134
 Basis Dimension        Dim             ....  322
 Nuclear Repulsion      ENuc            ....   1299.1445433279 Eh

Convergence Acceleration:
 DIIS                   CNVDIIS         .... on
   Start iteration      DIISMaxIt       ....    12
   Startup error        DIISStart       ....  0.200000
   # of expansion vecs  DIISMaxEq       ....     5
   Bias factor          DIISBfac        ....   1.050
   Max. coefficient     DIISMaxC        ....  10.000
 Newton-Raphson         CNVNR           .... off
 SOSCF                  CNVSOSCF        .... on
   Start iteration      SOSCFMaxIt      ....   150
   Startup grad/error   SOSCFStart      ....  0.003300
 Level Shifting         CNVShift        .... on
   Level shift para.    LevelShift      ....    0.2500
   Turn off err/grad.   ShiftErr        ....    0.0010
 Zerner damping         CNVZerner       .... off
 Static damping         CNVDamp         .... on
   Fraction old density DampFac         ....    0.7000
   Max. Damping (<1)    DampMax         ....    0.9800
   Min. Damping (>=0)   DampMin         ....    0.0000
   Turn off err/grad.   DampErr         ....    0.1000
 Fernandez-Rico         CNVRico         .... off

SCF Procedure:
 Maximum # iterations   MaxIter         ....   125
 SCF integral mode      SCFMode         .... Direct
   Integral package                     .... LIBINT
 Reset frequency        DirectResetFreq ....    20
 Integral Threshold     Thresh          ....  1.000e-10 Eh
 Primitive CutOff       TCut            ....  1.000e-11 Eh

Convergence Tolerance:
 Convergence Check Mode ConvCheckMode   .... Total+1el-Energy
 Convergence forced     ConvForced      .... 0
 Energy Change          TolE            ....  1.000e-06 Eh
 1-El. energy change                    ....  1.000e-03 Eh
 Orbital Gradient       TolG            ....  5.000e-05
 Orbital Rotation angle TolX            ....  5.000e-05
 DIIS Error             TolErr          ....  1.000e-06


Diagonalization of the overlap matrix:
Smallest eigenvalue                        ... 6.450e-04
Time for diagonalization                   ...    0.018 sec
Threshold for overlap eigenvalues          ... 1.000e-08
Number of eigenvalues below threshold      ... 0
Time for construction of square roots      ...    0.026 sec
Total time needed                          ...    0.044 sec

-------------------
DFT GRID GENERATION
-------------------

General Integration Accuracy     IntAcc      ...  4.340
Radial Grid Type                 RadialGrid  ... Gauss-Chebyshev
Angular Grid (max. acc.)         AngularGrid ... Lebedev-110
Angular grid pruning method      GridPruning ... 3 (G Style)
Weight generation scheme         WeightScheme... Becke
Basis function cutoff            BFCut       ...    1.0000e-10
Integration weight cutoff        WCut        ...    1.0000e-14
Grids for H and He will be reduced by one unit

# of grid points (after initial pruning)     ...  41088 (   0.0 sec)
# of grid points (after weights+screening)   ...  36911 (   0.0 sec)
nearest neighbour list constructed           ...    0.0 sec
Grid point re-assignment to atoms done       ...    0.0 sec
Grid point division into batches done        ...    0.0 sec
Reduced shell lists constructed in    0.1 sec

Total number of grid points                  ...    36911
Total number of batches                      ...      592
Average number of points per batch           ...       62
Average number of grid points per atom       ...     1086
Average number of shells per batch           ...    73.24 (47.56%)
Average number of basis functions per batch  ...   144.87 (44.99%)
Average number of large shells per batch     ...    45.00 (61.44%)
Average number of large basis fcns per batch ...    93.58 (64.60%)
Maximum spatial batch extension              ...  16.75, 17.13, 18.20 au
Average spatial batch extension              ...   0.25,  0.23,  0.25 au

Time for grid setup =    0.208 sec

------------------------------
INITIAL GUESS: MODEL POTENTIAL
------------------------------
Loading Hartree-Fock densities                     ... done
Calculating cut-offs                               ... done
Setting up the integral package                    ... done
Initializing the effective Hamiltonian             ... done
Starting the Coulomb interaction                   ... done (   0.0 sec)
Reading the grid                                   ... done
Mapping shells                                     ... done
Starting the XC term evaluation                    ... done (   0.0 sec)
  promolecular density results
     # of electrons  =    133.968994598
     EX              =   -126.766615930
     EC              =     -4.627201455
     EX+EC           =   -131.393817385
Transforming the Hamiltonian                       ... done (   0.0 sec)
Diagonalizing the Hamiltonian                      ... done (   0.0 sec)
Back transforming the eigenvectors                 ... done (   0.0 sec)
Now organizing SCF variables                       ... done
                      ------------------
                      INITIAL GUESS DONE (   0.4 sec)
                      ------------------
--------------
SCF ITERATIONS
--------------
ITER       Energy         Delta-E        Max-DP      RMS-DP      [F,P]     Damp
               ***  Starting incremental Fock matrix formation  ***
  0  -1339.4181380718   0.000000000000 0.06749628  0.00163347  0.1570821 0.7000
  1  -1339.6045374592  -0.186399387443 0.04555015  0.00118610  0.0955870 0.7000
                               ***Turning on DIIS***
  2  -1339.6952994195  -0.090761960225 0.08563665  0.00222469  0.0499577 0.0000
  3  -1339.8336708874  -0.138371467908 0.04312090  0.00102388  0.0402664 0.0000
  4  -1339.8624165692  -0.028745681785 0.00790019  0.00019319  0.0076846 0.0000
                      *** Initiating the SOSCF procedure ***
                           *** Shutting down DIIS ***
                      *** Re-Reading the Fockian *** 
                      *** Removing any level shift *** 
ITER      Energy       Delta-E        Grad      Rot      Max-DP    RMS-DP
  5  -1339.86328365  -0.0008670825  0.001377  0.001377  0.003071  0.000101
               *** Restarting incremental Fock matrix formation ***
  6  -1339.86345882  -0.0001751644  0.001283  0.003564  0.002583  0.000063
  7  -1339.86351918  -0.0000603659  0.000626  0.004064  0.003192  0.000061
  8  -1339.86353488  -0.0000156999  0.000342  0.000650  0.000793  0.000020
  9  -1339.86353907  -0.0000041881  0.000142  0.000356  0.000284  0.000009
 10  -1339.86353947  -0.0000004042  0.000051  0.000180  0.000152  0.000004
                 **** Energy Check signals convergence ****
              ***Rediagonalizing the Fockian in SOSCF/NRSCF***

               *****************************************************
               *                     SUCCESS                       *
               *           SCF CONVERGED AFTER  11 CYCLES          *
               *****************************************************

Setting up the final grid:

General Integration Accuracy     IntAcc      ...  4.670
Radial Grid Type                 RadialGrid  ... Gauss-Chebyshev
Angular Grid (max. acc.)         AngularGrid ... Lebedev-302
Angular grid pruning method      GridPruning ... 3 (G Style)
Weight generation scheme         WeightScheme... Becke
Basis function cutoff            BFCut       ...    1.0000e-10
Integration weight cutoff        WCut        ...    1.0000e-14
Grids for H and He will be reduced by one unit

# of grid points (after initial pruning)     ... 161752 (   0.0 sec)
# of grid points (after weights+screening)   ... 142326 (   0.2 sec)
nearest neighbour list constructed           ...    0.0 sec
Grid point re-assignment to atoms done       ...    0.0 sec
Grid point division into batches done        ...    0.5 sec
Reduced shell lists constructed in    0.6 sec

Total number of grid points                  ...   142326
Total number of batches                      ...     2240
Average number of points per batch           ...       63
Average number of grid points per atom       ...     4186
Average number of shells per batch           ...    68.05 (44.19%)
Average number of basis functions per batch  ...   133.87 (41.57%)
Average number of large shells per batch     ...    40.19 (59.06%)
Average number of large basis fcns per batch ...    83.10 (62.08%)
Maximum spatial batch extension              ...  15.18, 13.78, 15.54 au
Average spatial batch extension              ...   0.15,  0.15,  0.16 au

Final grid set up in    1.0 sec
Final integration                            ... done (   0.4 sec)
Change in XC energy                          ...     0.006298006
Integrated number of electrons               ...   134.000303875
Previous integrated no of electrons          ...   133.985507818

----------------
TOTAL SCF ENERGY
----------------

Total Energy       :        -1339.85724171 Eh          -36459.36911 eV

Components:
Nuclear Repulsion  :         1299.14454333 Eh           35351.52026 eV
Electronic Energy  :        -2639.00178504 Eh          -71810.88937 eV
One Electron Energy:        -4414.84430854 Eh         -120134.02113 eV
Two Electron Energy:         1775.84252350 Eh           48323.13176 eV

Virial components:
Potential Energy   :        -2671.73600944 Eh          -72701.63290 eV
Kinetic Energy     :         1331.87876772 Eh           36242.26379 eV
Virial Ratio       :            2.00599039


DFT components:
N(Alpha)           :       67.000151937534 electrons
N(Beta)            :       67.000151937534 electrons
N(Total)           :      134.000303875068 electrons
E(XC)              :      -94.324027512339 Eh       
DFET-embed. en.    :        0.000000000000 Eh       

---------------
SCF CONVERGENCE
---------------

  Last Energy change         ...   -2.4545e-07  Tolerance :   1.0000e-06
  Last MAX-Density change    ...    2.8565e-05  Tolerance :   1.0000e-05
  Last RMS-Density change    ...    7.6072e-07  Tolerance :   1.0000e-06
  Last Orbital Gradient      ...    7.6477e-06  Tolerance :   5.0000e-05
  Last Orbital Rotation      ...    2.3521e-05  Tolerance :   5.0000e-05

             **** THE GBW FILE WAS UPDATED (config_8120.gbw) ****
             **** DENSITY FILE WAS UPDATED (config_8120.scfp) ****
             **** ENERGY FILE WAS UPDATED (config_8120.en.tmp) ****
             **** THE GBW FILE WAS UPDATED (config_8120.gbw) ****
             **** DENSITY FILE WAS UPDATED (config_8120.scfp) ****
----------------
ORBITAL ENERGIES
----------------

  NO   OCC          E(Eh)            E(eV) 
   0   2.0000     -88.967232     -2420.9215 
   1   2.0000     -88.955758     -2420.6092 
   2   2.0000     -10.325002      -280.9576 
   3   2.0000     -10.321923      -280.8738 
   4   2.0000     -10.317863      -280.7633 
   5   2.0000     -10.316366      -280.7226 
   6   2.0000     -10.302928      -280.3569 
   7   2.0000     -10.300782      -280.2985 
   8   2.0000     -10.295183      -280.1462 
   9   2.0000     -10.294380      -280.1243 
  10   2.0000     -10.287014      -279.9239 
  11   2.0000     -10.286150      -279.9004 
  12   2.0000     -10.285623      -279.8860 
  13   2.0000     -10.283394      -279.8254 
  14   2.0000     -10.283222      -279.8207 
  15   2.0000     -10.274015      -279.5702 
  16   2.0000      -8.082802      -219.9442 
  17   2.0000      -8.072149      -219.6543 
  18   2.0000      -6.041248      -164.3907 
  19   2.0000      -6.037141      -164.2790 
  20   2.0000      -6.033633      -164.1835 
  21   2.0000      -6.030629      -164.1017 
  22   2.0000      -6.026331      -163.9848 
  23   2.0000      -6.022888      -163.8911 
  24   2.0000      -1.013518       -27.5792 
  25   2.0000      -0.990035       -26.9402 
  26   2.0000      -0.920630       -25.0516 
  27   2.0000      -0.906286       -24.6613 
  28   2.0000      -0.877639       -23.8818 
  29   2.0000      -0.853884       -23.2354 
  30   2.0000      -0.842826       -22.9345 
  31   2.0000      -0.812007       -22.0958 
  32   2.0000      -0.787257       -21.4223 
  33   2.0000      -0.776841       -21.1389 
  34   2.0000      -0.713973       -19.4282 
  35   2.0000      -0.699959       -19.0468 
  36   2.0000      -0.690928       -18.8011 
  37   2.0000      -0.655948       -17.8492 
  38   2.0000      -0.639535       -17.4026 
  39   2.0000      -0.624885       -17.0040 
  40   2.0000      -0.601170       -16.3587 
  41   2.0000      -0.581188       -15.8149 
  42   2.0000      -0.565309       -15.3828 
  43   2.0000      -0.544183       -14.8080 
  44   2.0000      -0.543642       -14.7933 
  45   2.0000      -0.528682       -14.3862 
  46   2.0000      -0.520394       -14.1606 
  47   2.0000      -0.511420       -13.9165 
  48   2.0000      -0.506906       -13.7936 
  49   2.0000      -0.504254       -13.7215 
  50   2.0000      -0.494456       -13.4548 
  51   2.0000      -0.485210       -13.2032 
  52   2.0000      -0.468785       -12.7563 
  53   2.0000      -0.464227       -12.6323 
  54   2.0000      -0.456906       -12.4330 
  55   2.0000      -0.454935       -12.3794 
  56   2.0000      -0.442141       -12.0313 
  57   2.0000      -0.438858       -11.9419 
  58   2.0000      -0.435704       -11.8561 
  59   2.0000      -0.429217       -11.6796 
  60   2.0000      -0.423523       -11.5247 
  61   2.0000      -0.412157       -11.2154 
  62   2.0000      -0.401805       -10.9337 
  63   2.0000      -0.342374        -9.3165 
  64   2.0000      -0.330001        -8.9798 
  65   2.0000      -0.323447        -8.8014 
  66   2.0000      -0.300050        -8.1648 
  67   0.0000       0.036692         0.9984 
  68   0.0000       0.069048         1.8789 
  69   0.0000       0.113889         3.0991 
  70   0.0000       0.119587         3.2541 
  71   0.0000       0.122978         3.3464 
  72   0.0000       0.136953         3.7267 
  73   0.0000       0.149317         4.0631 
  74   0.0000       0.153671         4.1816 
  75   0.0000       0.167097         4.5469 
  76   0.0000       0.170429         4.6376 
  77   0.0000       0.175546         4.7768 
  78   0.0000       0.187409         5.0997 
  79   0.0000       0.197064         5.3624 
  80   0.0000       0.201775         5.4906 
  81   0.0000       0.211867         5.7652 
  82   0.0000       0.214604         5.8397 
  83   0.0000       0.222503         6.0546 
  84   0.0000       0.223577         6.0838 
  85   0.0000       0.227007         6.1772 
  86   0.0000       0.245900         6.6913 
  87   0.0000       0.247726         6.7410 
  88   0.0000       0.250857         6.8262 
  89   0.0000       0.264181         7.1887 
  90   0.0000       0.266298         7.2463 
  91   0.0000       0.270040         7.3482 
  92   0.0000       0.290297         7.8994 
  93   0.0000       0.305841         8.3223 
  94   0.0000       0.313281         8.5248 
  95   0.0000       0.320014         8.7080 
  96   0.0000       0.330501         8.9934 
  97   0.0000       0.349908         9.5215 
  98   0.0000       0.363885         9.9018 
  99   0.0000       0.375994        10.2313 
 100   0.0000       0.384975        10.4757 
 101   0.0000       0.404517        11.0075 
 102   0.0000       0.412186        11.2162 
 103   0.0000       0.426409        11.6032 
 104   0.0000       0.428140        11.6503 
 105   0.0000       0.436557        11.8793 
 106   0.0000       0.471627        12.8336 
 107   0.0000       0.482312        13.1244 
 108   0.0000       0.493566        13.4306 
 109   0.0000       0.498130        13.5548 
 110   0.0000       0.504868        13.7382 
 111   0.0000       0.508742        13.8436 
 112   0.0000       0.514927        14.0119 
 113   0.0000       0.530192        14.4273 
 114   0.0000       0.530681        14.4406 
 115   0.0000       0.537565        14.6279 
 116   0.0000       0.542525        14.7629 
 117   0.0000       0.547624        14.9016 
 118   0.0000       0.554979        15.1017 
 119   0.0000       0.563530        15.3344 
 120   0.0000       0.579548        15.7703 
 121   0.0000       0.595966        16.2171 
 122   0.0000       0.606007        16.4903 
 123   0.0000       0.611577        16.6419 
 124   0.0000       0.624409        16.9910 
 125   0.0000       0.630041        17.1443 
 126   0.0000       0.636454        17.3188 
 127   0.0000       0.640454        17.4276 
 128   0.0000       0.647082        17.6080 
 129   0.0000       0.651455        17.7270 
 130   0.0000       0.663032        18.0420 
 131   0.0000       0.671225        18.2650 
 132   0.0000       0.689071        18.7506 
 133   0.0000       0.696961        18.9653 
 134   0.0000       0.707173        19.2432 
 135   0.0000       0.711301        19.3555 
 136   0.0000       0.715913        19.4810 
 137   0.0000       0.723736        19.6939 
 138   0.0000       0.736241        20.0341 
 139   0.0000       0.737282        20.0625 
 140   0.0000       0.741552        20.1787 
 141   0.0000       0.749880        20.4053 
 142   0.0000       0.755017        20.5451 
 143   0.0000       0.758725        20.6460 
 144   0.0000       0.766595        20.8601 
 145   0.0000       0.769684        20.9442 
 146   0.0000       0.774140        21.0654 
 147   0.0000       0.778742        21.1906 
 148   0.0000       0.787578        21.4311 
 149   0.0000       0.788865        21.4661 
 150   0.0000       0.794143        21.6097 
 151   0.0000       0.799710        21.7612 
 152   0.0000       0.805347        21.9146 
 153   0.0000       0.807334        21.9687 
 154   0.0000       0.811259        22.0755 
 155   0.0000       0.812069        22.0975 
 156   0.0000       0.819049        22.2874 
 157   0.0000       0.825956        22.4754 
 158   0.0000       0.829026        22.5589 
 159   0.0000       0.832107        22.6428 
 160   0.0000       0.842084        22.9143 
 161   0.0000       0.849157        23.1067 
 162   0.0000       0.853594        23.2275 
 163   0.0000       0.857700        23.3392 
 164   0.0000       0.864199        23.5161 
 165   0.0000       0.866994        23.5921 
 166   0.0000       0.884796        24.0765 
 167   0.0000       0.889450        24.2032 
 168   0.0000       0.904389        24.6097 
 169   0.0000       0.916747        24.9460 
 170   0.0000       0.921135        25.0654 
 171   0.0000       0.923123        25.1194 
 172   0.0000       0.934552        25.4305 
 173   0.0000       0.954549        25.9746 
 174   0.0000       0.967355        26.3231 
 175   0.0000       0.980883        26.6912 
 176   0.0000       0.999117        27.1873 
 177   0.0000       1.011748        27.5311 
 178   0.0000       1.025678        27.9101 
 179   0.0000       1.043048        28.3828 
 180   0.0000       1.047200        28.4958 
 181   0.0000       1.081348        29.4250 
 182   0.0000       1.104214        30.0472 
 183   0.0000       1.118047        30.4236 
 184   0.0000       1.127158        30.6715 
 185   0.0000       1.134206        30.8633 
 186   0.0000       1.152701        31.3666 
 187   0.0000       1.164501        31.6877 
 188   0.0000       1.183894        32.2154 
 189   0.0000       1.203183        32.7403 
 190   0.0000       1.213217        33.0133 
 191   0.0000       1.230375        33.4802 
 192   0.0000       1.242561        33.8118 
 193   0.0000       1.267090        34.4793 
 194   0.0000       1.277523        34.7632 
 195   0.0000       1.295010        35.2390 
 196   0.0000       1.304417        35.4950 
 197   0.0000       1.333703        36.2919 
 198   0.0000       1.365300        37.1517 
 199   0.0000       1.376944        37.4685 
 200   0.0000       1.389839        37.8194 
 201   0.0000       1.408847        38.3367 
 202   0.0000       1.432360        38.9765 
 203   0.0000       1.449185        39.4343 
 204   0.0000       1.452777        39.5321 
 205   0.0000       1.473613        40.0991 
 206   0.0000       1.488017        40.4910 
 207   0.0000       1.510460        41.1017 
 208   0.0000       1.553492        42.2727 
 209   0.0000       1.567833        42.6629 
 210   0.0000       1.587824        43.2069 
 211   0.0000       1.590438        43.2780 
 212   0.0000       1.623885        44.1882 
 213   0.0000       1.644005        44.7357 
 214   0.0000       1.649094        44.8741 
 215   0.0000       1.653604        44.9969 
 216   0.0000       1.669638        45.4331 
 217   0.0000       1.686836        45.9011 
 218   0.0000       1.753775        47.7226 
 219   0.0000       1.781683        48.4820 
 220   0.0000       1.788584        48.6698 
 221   0.0000       1.799889        48.9775 
 222   0.0000       1.809574        49.2410 
 223   0.0000       1.822758        49.5998 
 224   0.0000       1.826377        49.6982 
 225   0.0000       1.837034        49.9882 
 226   0.0000       1.844100        50.1805 
 227   0.0000       1.851043        50.3694 
 228   0.0000       1.856359        50.5141 
 229   0.0000       1.864440        50.7340 
 230   0.0000       1.873567        50.9824 
 231   0.0000       1.881100        51.1873 
 232   0.0000       1.889562        51.4176 
 233   0.0000       1.901942        51.7545 
 234   0.0000       1.910457        51.9862 
 235   0.0000       1.912200        52.0336 
 236   0.0000       1.918911        52.2162 
 237   0.0000       1.930274        52.5254 
 238   0.0000       1.932175        52.5771 
 239   0.0000       1.942077        52.8466 
 240   0.0000       1.950883        53.0862 
 241   0.0000       1.962998        53.4159 
 242   0.0000       1.979856        53.8746 
 243   0.0000       1.987287        54.0768 
 244   0.0000       1.993437        54.2442 
 245   0.0000       2.002939        54.5027 
 246   0.0000       2.006371        54.5961 
 247   0.0000       2.016144        54.8621 
 248   0.0000       2.029181        55.2168 
 249   0.0000       2.039755        55.5046 
 250   0.0000       2.045384        55.6577 
 251   0.0000       2.051340        55.8198 
 252   0.0000       2.058910        56.0258 
 253   0.0000       2.071889        56.3790 
 254   0.0000       2.096521        57.0492 
 255   0.0000       2.099296        57.1247 
 256   0.0000       2.123959        57.7959 
 257   0.0000       2.136754        58.1440 
 258   0.0000       2.143045        58.3152 
 259   0.0000       2.158253        58.7290 
 260   0.0000       2.168685        59.0129 
 261   0.0000       2.174147        59.1615 
 262   0.0000       2.200903        59.8896 
 263   0.0000       2.212456        60.2040 
 264   0.0000       2.222518        60.4778 
 265   0.0000       2.248558        61.1864 
 266   0.0000       2.262593        61.5683 
 267   0.0000       2.277162        61.9647 
 268   0.0000       2.299207        62.5646 
 269   0.0000       2.321407        63.1687 
 270   0.0000       2.341579        63.7176 
 271   0.0000       2.353445        64.0405 
 272   0.0000       2.385740        64.9193 
 273   0.0000       2.400546        65.3222 
 274   0.0000       2.408256        65.5320 
 275   0.0000       2.411949        65.6325 
 276   0.0000       2.433831        66.2279 
 277   0.0000       2.448035        66.6144 
 278   0.0000       2.482829        67.5612 
 279   0.0000       2.494146        67.8692 
 280   0.0000       2.506845        68.2147 
 281   0.0000       2.510931        68.3259 
 282   0.0000       2.524613        68.6982 
 283   0.0000       2.526675        68.7543 
 284   0.0000       2.551299        69.4244 
 285   0.0000       2.559909        69.6587 
 286   0.0000       2.570141        69.9371 
 287   0.0000       2.608452        70.9796 
 288   0.0000       2.622274        71.3557 
 289   0.0000       2.645588        71.9901 
 290   0.0000       2.649654        72.1007 
 291   0.0000       2.687836        73.1397 
 292   0.0000       2.690852        73.2218 
 293   0.0000       2.714589        73.8677 
 294   0.0000       2.725794        74.1726 
 295   0.0000       2.740577        74.5749 
 296   0.0000       2.751902        74.8830 
 297   0.0000       2.771257        75.4097 
 298   0.0000       2.774110        75.4874 
 299   0.0000       2.792515        75.9882 
 300   0.0000       2.847574        77.4864 
 301   0.0000       2.871889        78.1481 
 302   0.0000       2.937280        79.9275 
 303   0.0000       2.941076        80.0308 
 304   0.0000       2.964757        80.6751 
 305   0.0000       2.994580        81.4867 
 306   0.0000       3.013825        82.0103 
 307   0.0000       3.017410        82.1079 
 308   0.0000       3.035130        82.5901 
 309   0.0000       3.038243        82.6748 
 310   0.0000       3.067363        83.4672 
 311   0.0000       3.070419        83.5503 
 312   0.0000       3.105147        84.4953 
 313   0.0000       3.119042        84.8734 
 314   0.0000       3.142302        85.5064 
 315   0.0000       3.176073        86.4253 
 316   0.0000       3.194711        86.9325 
 317   0.0000       3.198006        87.0222 
 318   0.0000       3.279751        89.2466 
 319   0.0000       3.308711        90.0346 
 320   0.0000       3.372081        91.7590 
 321   0.0000       3.436201        93.5038 

                    ********************************
                    * MULLIKEN POPULATION ANALYSIS *
                    ********************************

-----------------------
MULLIKEN ATOMIC CHARGES
-----------------------
   0 S :    0.125283
   1 C :   -0.135094
   2 C :   -0.083061
   3 C :    0.037793
   4 C :   -0.161212
   5 H :   -0.001404
   6 C :    0.081344
   7 H :    0.008308
   8 H :    0.017515
   9 C :   -0.097028
  10 H :    0.019669
  11 H :    0.021170
  12 C :    0.014974
  13 H :    0.039878
  14 H :    0.027323
  15 H :    0.012456
  16 S :    0.086837
  17 C :   -0.090836
  18 C :   -0.035513
  19 C :   -0.053241
  20 C :   -0.123242
  21 H :    0.034073
  22 C :    0.077215
  23 H :    0.028140
  24 H :    0.012382
  25 C :   -0.093480
  26 H :    0.019900
  27 H :    0.030552
  28 C :   -0.070286
  29 H :    0.027688
  30 H :    0.040938
  31 H :    0.049473
  32 H :    0.051599
  33 H :    0.079887
Sum of atomic charges:   -0.0000000

--------------------------------
MULLIKEN REDUCED ORBITAL CHARGES
--------------------------------
  0 S s       :     5.844568  s :     5.844568
      pz      :     3.416798  p :     9.917119
      px      :     3.321691
      py      :     3.178630
      dz2     :     0.022344  d :     0.113031
      dxz     :     0.021162
      dyz     :     0.018034
      dx2y2   :     0.018385
      dxy     :     0.033105
  1 C s       :     3.190766  s :     3.190766
      pz      :     0.980243  p :     2.910286
      px      :     0.987149
      py      :     0.942893
      dz2     :     0.005321  d :     0.034043
      dxz     :     0.007151
      dyz     :     0.005273
      dx2y2   :     0.006544
      dxy     :     0.009754
  2 C s       :     3.096953  s :     3.096953
      pz      :     0.951277  p :     2.942242
      px      :     0.965860
      py      :     1.025106
      dz2     :     0.007954  d :     0.043866
      dxz     :     0.009884
      dyz     :     0.007719
      dx2y2   :     0.010060
      dxy     :     0.008249
  3 C s       :     3.185526  s :     3.185526
      pz      :     0.956058  p :     2.742748
      px      :     0.834269
      py      :     0.952421
      dz2     :     0.007713  d :     0.033934
      dxz     :     0.006434
      dyz     :     0.005084
      dx2y2   :     0.006682
      dxy     :     0.008020
  4 C s       :     3.047863  s :     3.047863
      pz      :     1.092415  p :     3.066008
      px      :     0.937745
      py      :     1.035849
      dz2     :     0.007193  d :     0.047341
      dxz     :     0.009224
      dyz     :     0.007236
      dx2y2   :     0.008931
      dxy     :     0.014757
  5 H s       :     0.977499  s :     0.977499
      pz      :     0.004091  p :     0.023905
      px      :     0.013418
      py      :     0.006396
  6 C s       :     2.931601  s :     2.931601
      pz      :     0.981552  p :     2.950382
      px      :     0.947664
      py      :     1.021166
      dz2     :     0.004779  d :     0.036673
      dxz     :     0.010357
      dyz     :     0.008020
      dx2y2   :     0.005862
      dxy     :     0.007655
  7 H s       :     0.968067  s :     0.968067
      pz      :     0.006480  p :     0.023624
      px      :     0.006199
      py      :     0.010945
  8 H s       :     0.957669  s :     0.957669
      pz      :     0.007200  p :     0.024815
      px      :     0.011536
      py      :     0.006079
  9 C s       :     3.061944  s :     3.061944
      pz      :     1.002360  p :     2.997377
      px      :     0.990873
      py      :     1.004144
      dz2     :     0.003815  d :     0.037707
      dxz     :     0.009540
      dyz     :     0.010143
      dx2y2   :     0.005546
      dxy     :     0.008663
 10 H s       :     0.955787  s :     0.955787
      pz      :     0.007532  p :     0.024543
      px      :     0.010113
      py      :     0.006898
 11 H s       :     0.956220  s :     0.956220
      pz      :     0.007346  p :     0.022610
      px      :     0.005751
      py      :     0.009512
 12 C s       :     2.957436  s :     2.957436
      pz      :     1.002704  p :     2.998491
      px      :     0.987441
      py      :     1.008346
      dz2     :     0.002359  d :     0.029099
      dxz     :     0.007760
      dyz     :     0.007904
      dx2y2   :     0.006716
      dxy     :     0.004360
 13 H s       :     0.936334  s :     0.936334
      pz      :     0.009676  p :     0.023787
      px      :     0.005203
      py      :     0.008909
 14 H s       :     0.947281  s :     0.947281
      pz      :     0.009330  p :     0.025397
      px      :     0.010588
      py      :     0.005478
 15 H s       :     0.960209  s :     0.960209
      pz      :     0.007676  p :     0.027335
      px      :     0.006253
      py      :     0.013406
 16 S s       :     5.840380  s :     5.840380
      pz      :     3.059880  p :     9.961049
      px      :     3.617839
      py      :     3.283330
      dz2     :     0.034051  d :     0.111733
      dxz     :     0.019151
      dyz     :     0.020688
      dx2y2   :     0.019233
      dxy     :     0.018610
 17 C s       :     3.146716  s :     3.146716
      pz      :     0.949934  p :     2.906091
      px      :     1.038267
      py      :     0.917890
      dz2     :     0.010516  d :     0.038029
      dxz     :     0.005214
      dyz     :     0.008197
      dx2y2   :     0.006995
      dxy     :     0.007107
 18 C s       :     3.189037  s :     3.189037
      pz      :     0.911857  p :     2.812319
      px      :     1.024001
      py      :     0.876462
      dz2     :     0.008635  d :     0.034157
      dxz     :     0.007006
      dyz     :     0.010699
      dx2y2   :     0.004163
      dxy     :     0.003653
 19 C s       :     3.073931  s :     3.073931
      pz      :     0.972895  p :     2.934800
      px      :     0.977068
      py      :     0.984837
      dz2     :     0.011353  d :     0.044510
      dxz     :     0.006079
      dyz     :     0.012743
      dx2y2   :     0.006683
      dxy     :     0.007652
 20 C s       :     3.061812  s :     3.061812
      pz      :     0.889866  p :     3.015972
      px      :     1.126008
      py      :     1.000098
      dz2     :     0.014402  d :     0.045458
      dxz     :     0.005118
      dyz     :     0.010798
      dx2y2   :     0.007999
      dxy     :     0.007142
 21 H s       :     0.943707  s :     0.943707
      pz      :     0.002835  p :     0.022220
      px      :     0.005678
      py      :     0.013707
 22 C s       :     2.940227  s :     2.940227
      pz      :     0.973279  p :     2.947548
      px      :     0.975023
      py      :     0.999246
      dz2     :     0.007204  d :     0.035010
      dxz     :     0.007261
      dyz     :     0.007284
      dx2y2   :     0.003933
      dxy     :     0.009328
 23 H s       :     0.947815  s :     0.947815
      pz      :     0.004548  p :     0.024045
      px      :     0.007691
      py      :     0.011806
 24 H s       :     0.962315  s :     0.962315
      pz      :     0.009632  p :     0.025303
      px      :     0.006667
      py      :     0.009003
 25 C s       :     3.053347  s :     3.053347
      pz      :     1.018146  p :     3.003672
      px      :     0.958903
      py      :     1.026623
      dz2     :     0.008628  d :     0.036460
      dxz     :     0.004960
      dyz     :     0.005464
      dx2y2   :     0.009827
      dxy     :     0.007580
 26 H s       :     0.957184  s :     0.957184
      pz      :     0.006855  p :     0.022916
      px      :     0.004208
      py      :     0.011853
 27 H s       :     0.947309  s :     0.947309
      pz      :     0.013682  p :     0.022139
      px      :     0.003305
      py      :     0.005152
 28 C s       :     3.039315  s :     3.039315
      pz      :     1.025611  p :     3.002756
      px      :     0.968814
      py      :     1.008331
      dz2     :     0.008683  d :     0.028215
      dxz     :     0.003247
      dyz     :     0.003166
      dx2y2   :     0.007518
      dxy     :     0.005601
 29 H s       :     0.949842  s :     0.949842
      pz      :     0.005919  p :     0.022470
      px      :     0.004136
      py      :     0.012415
 30 H s       :     0.935809  s :     0.935809
      pz      :     0.014406  p :     0.023253
      px      :     0.004138
      py      :     0.004709
 31 H s       :     0.929789  s :     0.929789
      pz      :     0.004758  p :     0.020738
      px      :     0.010821
      py      :     0.005159
 32 H s       :     0.925306  s :     0.925306
      pz      :     0.005598  p :     0.023094
      px      :     0.005203
      py      :     0.012293
 33 H s       :     0.897778  s :     0.897778
      pz      :     0.014321  p :     0.022336
      px      :     0.004519
      py      :     0.003495


                     *******************************
                     * LOEWDIN POPULATION ANALYSIS *
                     *******************************

----------------------
LOEWDIN ATOMIC CHARGES
----------------------
   0 S :    0.429601
   1 C :   -0.198732
   2 C :   -0.061051
   3 C :   -0.052551
   4 C :   -0.218142
   5 H :    0.025728
   6 C :   -0.031135
   7 H :    0.023427
   8 H :    0.031109
   9 C :   -0.029932
  10 H :    0.013042
  11 H :    0.023271
  12 C :   -0.045955
  13 H :    0.033989
  14 H :    0.023759
  15 H :    0.012303
  16 S :    0.404446
  17 C :   -0.196740
  18 C :   -0.086271
  19 C :   -0.052284
  20 C :   -0.194229
  21 H :    0.038083
  22 C :   -0.035921
  23 H :    0.039497
  24 H :    0.026024
  25 C :   -0.046475
  26 H :    0.019571
  27 H :    0.025590
  28 C :   -0.077169
  29 H :    0.019991
  30 H :    0.027937
  31 H :    0.035962
  32 H :    0.029822
  33 H :    0.043432

-------------------------------
LOEWDIN REDUCED ORBITAL CHARGES
-------------------------------
  0 S s       :     5.488138  s :     5.488138
      pz      :     3.395952  p :     9.941012
      px      :     3.364262
      py      :     3.180798
      dz2     :     0.027289  d :     0.141248
      dxz     :     0.024852
      dyz     :     0.024207
      dx2y2   :     0.021824
      dxy     :     0.043076
  1 C s       :     2.935855  s :     2.935855
      pz      :     1.050479  p :     3.182331
      px      :     1.073468
      py      :     1.058384
      dz2     :     0.012009  d :     0.080546
      dxz     :     0.016752
      dyz     :     0.010755
      dx2y2   :     0.016720
      dxy     :     0.024311
  2 C s       :     2.862551  s :     2.862551
      pz      :     1.008017  p :     3.090049
      px      :     1.058104
      py      :     1.023928
      dz2     :     0.017245  d :     0.108451
      dxz     :     0.025312
      dyz     :     0.018747
      dx2y2   :     0.026193
      dxy     :     0.020954
  3 C s       :     2.874537  s :     2.874537
      pz      :     1.023291  p :     3.089145
      px      :     1.042828
      py      :     1.023026
      dz2     :     0.017690  d :     0.088869
      dxz     :     0.017091
      dyz     :     0.014006
      dx2y2   :     0.018986
      dxy     :     0.021096
  4 C s       :     2.890192  s :     2.890192
      pz      :     1.089733  p :     3.212148
      px      :     1.058847
      py      :     1.063568
      dz2     :     0.016592  d :     0.115802
      dxz     :     0.022788
      dyz     :     0.018212
      dx2y2   :     0.022565
      dxy     :     0.035645
  5 H s       :     0.904404  s :     0.904404
      pz      :     0.012945  p :     0.069869
      px      :     0.037963
      py      :     0.018961
  6 C s       :     2.812580  s :     2.812580
      pz      :     1.039480  p :     3.125135
      px      :     1.032578
      py      :     1.053076
      dz2     :     0.009767  d :     0.093421
      dxz     :     0.028038
      dyz     :     0.021739
      dx2y2   :     0.014512
      dxy     :     0.019366
  7 H s       :     0.906001  s :     0.906001
      pz      :     0.020062  p :     0.070572
      px      :     0.017645
      py      :     0.032865
  8 H s       :     0.896615  s :     0.896615
      pz      :     0.021308  p :     0.072276
      px      :     0.032913
      py      :     0.018056
  9 C s       :     2.825690  s :     2.825690
      pz      :     1.039017  p :     3.114134
      px      :     1.037637
      py      :     1.037480
      dz2     :     0.007038  d :     0.090107
      dxz     :     0.024517
      dyz     :     0.025206
      dx2y2   :     0.012254
      dxy     :     0.021092
 10 H s       :     0.909623  s :     0.909623
      pz      :     0.024305  p :     0.077335
      px      :     0.030990
      py      :     0.022040
 11 H s       :     0.911304  s :     0.911304
      pz      :     0.021322  p :     0.065425
      px      :     0.015974
      py      :     0.028129
 12 C s       :     2.809687  s :     2.809687
      pz      :     1.054370  p :     3.161202
      px      :     1.040623
      py      :     1.066209
      dz2     :     0.005316  d :     0.075066
      dxz     :     0.021226
      dyz     :     0.020407
      dx2y2   :     0.016665
      dxy     :     0.011453
 13 H s       :     0.900558  s :     0.900558
      pz      :     0.027017  p :     0.065452
      px      :     0.014768
      py      :     0.023668
 14 H s       :     0.905244  s :     0.905244
      pz      :     0.026291  p :     0.070997
      px      :     0.029821
      py      :     0.014885
 15 H s       :     0.909059  s :     0.909059
      pz      :     0.021567  p :     0.078638
      px      :     0.019435
      py      :     0.037637
 16 S s       :     5.489243  s :     5.489243
      pz      :     3.072180  p :     9.967872
      px      :     3.586901
      py      :     3.308790
      dz2     :     0.045050  d :     0.138440
      dxz     :     0.023208
      dyz     :     0.025313
      dx2y2   :     0.023114
      dxy     :     0.021755
 17 C s       :     2.924683  s :     2.924683
      pz      :     1.080603  p :     3.181267
      px      :     1.052205
      py      :     1.048459
      dz2     :     0.027593  d :     0.090790
      dxz     :     0.010014
      dyz     :     0.022181
      dx2y2   :     0.015573
      dxy     :     0.015429
 18 C s       :     2.876943  s :     2.876943
      pz      :     1.043285  p :     3.120285
      px      :     1.033547
      py      :     1.043453
      dz2     :     0.025077  d :     0.089043
      dxz     :     0.015688
      dyz     :     0.031445
      dx2y2   :     0.009358
      dxy     :     0.007474
 19 C s       :     2.854847  s :     2.854847
      pz      :     1.042759  p :     3.084920
      px      :     0.984588
      py      :     1.057572
      dz2     :     0.029439  d :     0.112518
      dxz     :     0.012774
      dyz     :     0.036387
      dx2y2   :     0.015928
      dxy     :     0.017991
 20 C s       :     2.893470  s :     2.893470
      pz      :     0.994442  p :     3.189186
      px      :     1.101369
      py      :     1.093375
      dz2     :     0.034455  d :     0.111572
      dxz     :     0.011197
      dyz     :     0.029256
      dx2y2   :     0.019234
      dxy     :     0.017430
 21 H s       :     0.896995  s :     0.896995
      pz      :     0.009600  p :     0.064922
      px      :     0.016786
      py      :     0.038536
 22 C s       :     2.816512  s :     2.816512
      pz      :     1.039605  p :     3.130926
      px      :     1.022104
      py      :     1.069218
      dz2     :     0.019531  d :     0.088483
      dxz     :     0.016695
      dyz     :     0.019530
      dx2y2   :     0.010405
      dxy     :     0.022321
 23 H s       :     0.891534  s :     0.891534
      pz      :     0.014017  p :     0.068969
      px      :     0.023024
      py      :     0.031927
 24 H s       :     0.898279  s :     0.898279
      pz      :     0.029055  p :     0.075697
      px      :     0.022267
      py      :     0.024374
 25 C s       :     2.838554  s :     2.838554
      pz      :     1.061629  p :     3.120877
      px      :     1.005288
      py      :     1.053961
      dz2     :     0.022008  d :     0.087043
      dxz     :     0.010938
      dyz     :     0.012853
      dx2y2   :     0.022673
      dxy     :     0.018572
 26 H s       :     0.912270  s :     0.912270
      pz      :     0.018729  p :     0.068158
      px      :     0.014417
      py      :     0.035013
 27 H s       :     0.908209  s :     0.908209
      pz      :     0.038426  p :     0.066200
      px      :     0.012497
      py      :     0.015277
 28 C s       :     2.851666  s :     2.851666
      pz      :     1.069636  p :     3.154632
      px      :     1.033502
      py      :     1.051493
      dz2     :     0.022017  d :     0.070871
      dxz     :     0.007649
      dyz     :     0.007767
      dx2y2   :     0.018692
      dxy     :     0.014747
 29 H s       :     0.917382  s :     0.917382
      pz      :     0.015032  p :     0.062626
      px      :     0.011720
      py      :     0.035875
 30 H s       :     0.906867  s :     0.906867
      pz      :     0.040344  p :     0.065196
      px      :     0.011998
      py      :     0.012854
 31 H s       :     0.906522  s :     0.906522
      pz      :     0.012430  p :     0.057516
      px      :     0.030714
      py      :     0.014371
 32 H s       :     0.898196  s :     0.898196
      pz      :     0.018974  p :     0.071982
      px      :     0.016209
      py      :     0.036799
 33 H s       :     0.888350  s :     0.888350
      pz      :     0.040525  p :     0.068218
      px      :     0.014434
      py      :     0.013258


                      *****************************
                      * MAYER POPULATION ANALYSIS *
                      *****************************

  NA   - Mulliken gross atomic population
  ZA   - Total nuclear charge
  QA   - Mulliken gross atomic charge
  VA   - Mayer's total valence
  BVA  - Mayer's bonded valence
  FA   - Mayer's free valence

  ATOM       NA         ZA         QA         VA         BVA        FA
  0 S     15.8747    16.0000     0.1253     2.4921     2.4921     0.0000
  1 C      6.1351     6.0000    -0.1351     3.8324     3.8324    -0.0000
  2 C      6.0831     6.0000    -0.0831     4.0373     4.0373     0.0000
  3 C      5.9622     6.0000     0.0378     3.9207     3.9207    -0.0000
  4 C      6.1612     6.0000    -0.1612     3.8861     3.8861     0.0000
  5 H      1.0014     1.0000    -0.0014     1.0096     1.0096    -0.0000
  6 C      5.9187     6.0000     0.0813     3.9589     3.9589     0.0000
  7 H      0.9917     1.0000     0.0083     0.9933     0.9933     0.0000
  8 H      0.9825     1.0000     0.0175     0.9901     0.9901     0.0000
  9 C      6.0970     6.0000    -0.0970     4.0767     4.0767     0.0000
 10 H      0.9803     1.0000     0.0197     0.9840     0.9840     0.0000
 11 H      0.9788     1.0000     0.0212     0.9816     0.9816     0.0000
 12 C      5.9850     6.0000     0.0150     3.9982     3.9982    -0.0000
 13 H      0.9601     1.0000     0.0399     0.9879     0.9879     0.0000
 14 H      0.9727     1.0000     0.0273     0.9945     0.9945    -0.0000
 15 H      0.9875     1.0000     0.0125     0.9959     0.9959     0.0000
 16 S     15.9132    16.0000     0.0868     2.4864     2.4864    -0.0000
 17 C      6.0908     6.0000    -0.0908     3.8259     3.8259    -0.0000
 18 C      6.0355     6.0000    -0.0355     3.9110     3.9110     0.0000
 19 C      6.0532     6.0000    -0.0532     4.0628     4.0628    -0.0000
 20 C      6.1232     6.0000    -0.1232     3.8867     3.8867    -0.0000
 21 H      0.9659     1.0000     0.0341     0.9940     0.9940     0.0000
 22 C      5.9228     6.0000     0.0772     3.9681     3.9681     0.0000
 23 H      0.9719     1.0000     0.0281     0.9804     0.9804     0.0000
 24 H      0.9876     1.0000     0.0124     0.9946     0.9946     0.0000
 25 C      6.0935     6.0000    -0.0935     4.0877     4.0877    -0.0000
 26 H      0.9801     1.0000     0.0199     0.9734     0.9734     0.0000
 27 H      0.9694     1.0000     0.0306     0.9789     0.9789    -0.0000
 28 C      6.0703     6.0000    -0.0703     4.0015     4.0015    -0.0000
 29 H      0.9723     1.0000     0.0277     0.9948     0.9948    -0.0000
 30 H      0.9591     1.0000     0.0409     0.9916     0.9916     0.0000
 31 H      0.9505     1.0000     0.0495     0.9827     0.9827     0.0000
 32 H      0.9484     1.0000     0.0516     1.0021     1.0021    -0.0000
 33 H      0.9201     1.0000     0.0799     0.9897     0.9897    -0.0000

  Mayer bond orders larger than 0.100000
B(  0-S ,  1-C ) :   1.1447 B(  0-S ,  4-C ) :   1.1578 B(  1-C ,  2-C ) :   1.6003 
B(  1-C , 32-H ) :   0.9631 B(  2-C ,  3-C ) :   1.2500 B(  2-C ,  6-C ) :   1.0427 
B(  3-C ,  4-C ) :   1.5548 B(  3-C ,  5-H ) :   0.9867 B(  4-C , 20-C ) :   1.0380 
B(  6-C ,  7-H ) :   0.9372 B(  6-C ,  8-H ) :   0.9354 B(  6-C ,  9-C ) :   1.0539 
B(  9-C , 10-H ) :   0.9594 B(  9-C , 11-H ) :   0.9553 B(  9-C , 12-C ) :   1.0775 
B( 12-C , 13-H ) :   0.9730 B( 12-C , 14-H ) :   0.9722 B( 12-C , 15-H ) :   0.9761 
B( 16-S , 17-C ) :   1.1766 B( 16-S , 20-C ) :   1.1076 B( 17-C , 18-C ) :   1.6014 
B( 17-C , 33-H ) :   0.9613 B( 18-C , 19-C ) :   1.2085 B( 18-C , 21-H ) :   0.9900 
B( 19-C , 20-C ) :   1.6303 B( 19-C , 22-C ) :   1.0688 B( 22-C , 23-H ) :   0.9383 
B( 22-C , 24-H ) :   0.9355 B( 22-C , 25-C ) :   1.0388 B( 25-C , 26-H ) :   0.9551 
B( 25-C , 27-H ) :   0.9570 B( 25-C , 28-C ) :   1.0963 B( 28-C , 29-H ) :   0.9712 
B( 28-C , 30-H ) :   0.9616 B( 28-C , 31-H ) :   0.9682 

-------
TIMINGS
-------

Total SCF time: 0 days 0 hours 0 min 33 sec 

Total time                  ....      33.442 sec
Sum of individual times     ....      32.289 sec  ( 96.6%)

Fock matrix formation       ....      30.315 sec  ( 90.7%)
  XC integration            ....       2.238 sec  (  7.4% of F)
    Basis function eval.    ....       0.237 sec  ( 10.6% of XC)
    Density eval.           ....       0.175 sec  (  7.8% of XC)
    XC-Functional eval.     ....       0.183 sec  (  8.2% of XC)
    XC-Potential eval.      ....       0.222 sec  (  9.9% of XC)
Diagonalization             ....       0.147 sec  (  0.4%)
Density matrix formation    ....       0.019 sec  (  0.1%)
Population analysis         ....       0.076 sec  (  0.2%)
Initial guess               ....       0.212 sec  (  0.6%)
Orbital Transformation      ....       0.000 sec  (  0.0%)
Orbital Orthonormalization  ....       0.000 sec  (  0.0%)
DIIS solution               ....       0.167 sec  (  0.5%)
SOSCF solution              ....       0.118 sec  (  0.4%)
Grid generation             ....       1.235 sec  (  3.7%)


-------------------------------------------------------------------------------
                          DFT DISPERSION CORRECTION                            
                                                                               
                              DFTD3 V3.1  Rev 1                                
                              USING zero damping                               
-------------------------------------------------------------------------------
The omegaB97X-D3 functional is recognized. Fit by Chai et al.
Active option DFTDOPT                   ...         3   

molecular C6(AA) [au] = 14129.468514 


            DFT-D V3
 parameters
 s6 scaling factor         :     1.0000 
 rs6 scaling factor        :     1.2810 
 s8 scaling factor         :     1.0000 
 rs8 scaling factor        :     1.0940 
 Damping factor alpha6     :    14.0000 
 Damping factor alpha8     :    16.0000 
 ad hoc parameters k1-k3   :    16.0000     1.3333    -4.0000 

 Edisp/kcal,au: -9.476645086326  -0.015101993623 
 E6   /kcal   :  -4.415237669 
 E8   /kcal   :  -5.061407417 
 % E8         :  53.409274813 

-------------------------   ----------------
Dispersion correction           -0.015101994
-------------------------   ----------------


-------------------------   --------------------
FINAL SINGLE POINT ENERGY     -1339.872343707802
-------------------------   --------------------


                            ***************************************
                            *     ORCA property calculations      *
                            ***************************************

                                    ---------------------
                                    Active property flags
                                    ---------------------
   (+) Dipole Moment


------------------------------------------------------------------------------
                       ORCA ELECTRIC PROPERTIES CALCULATION
------------------------------------------------------------------------------

Dipole Moment Calculation                       ... on
Quadrupole Moment Calculation                   ... off
Polarizability Calculation                      ... off
GBWName                                         ... config_8120.gbw
Electron density file                           ... config_8120.scfp
The origin for moment calculation is the CENTER OF MASS  = (-130.146420, 72.114861 230.229910)

-------------
DIPOLE MOMENT
-------------
                                X             Y             Z
Electronic contribution:    -22.16411       4.96093     -21.57586
Nuclear contribution   :     22.68285      -5.18179      22.02770
                        -----------------------------------------
Total Dipole Moment    :      0.51873      -0.22086       0.45185
                        -----------------------------------------
Magnitude (a.u.)       :      0.72252
Magnitude (Debye)      :      1.83649



--------------------
Rotational spectrum 
--------------------
 
Rotational constants in cm-1:     0.018557     0.009584     0.006995 
Rotational constants in MHz :   556.328413   287.317835   209.706794 

 Dipole components along the rotational axes: 
x,y,z [a.u.] :     0.338630    -0.638201    -0.007567 
x,y,z [Debye]:     0.860728    -1.622179    -0.019234 

 

Timings for individual modules:

Sum of individual times         ...       34.615 sec (=   0.577 min)
GTO integral calculation        ...        0.756 sec (=   0.013 min)   2.2 %
SCF iterations                  ...       33.859 sec (=   0.564 min)  97.8 %
                             ****ORCA TERMINATED NORMALLY****
TOTAL RUN TIME: 0 days 0 hours 0 minutes 35 seconds 317 msec
