
                                 *****************
                                 * O   R   C   A *
                                 *****************

           --- An Ab Initio, DFT and Semiempirical electronic structure package ---

                  #######################################################
                  #                        -***-                        #
                  #          Department of theory and spectroscopy      #
                  #               Directorship: Frank Neese             #
                  #        Max Planck Institute fuer Kohlenforschung    #
                  #                Kaiser Wilhelm Platz 1               #
                  #                 D-45470 Muelheim/Ruhr               #
                  #                      Germany                        #
                  #                                                     #
                  #                  All rights reserved                #
                  #                        -***-                        #
                  #######################################################


                         Program Version 4.2.1 -  RELEASE  -


 With contributions from (in alphabetic order):
   Daniel Aravena         : Magnetic Suceptibility
   Michael Atanasov       : Ab Initio Ligand Field Theory (pilot matlab implementation)
   Alexander A. Auer      : GIAO ZORA, VPT2
   Ute Becker             : Parallelization
   Giovanni Bistoni       : ED, misc. LED, open-shell LED, HFLD
   Martin Brehm           : Molecular dynamics
   Dmytro Bykov           : SCF Hessian
   Vijay G. Chilkuri      : MRCI spin determinant printing, contributions to CSF-ICE
   Dipayan Datta          : RHF DLPNO-CCSD density
   Achintya Kumar Dutta   : EOM-CC, STEOM-CC
   Dmitry Ganyushin       : Spin-Orbit,Spin-Spin,Magnetic field MRCI
   Miquel Garcia          : C-PCM Hessian, Gaussian charge scheme
   Yang Guo               : DLPNO-NEVPT2, CIM, IAO-localization
   Andreas Hansen         : Spin unrestricted coupled pair/coupled cluster methods
   Benjamin Helmich-Paris : CASSCF linear response (MC-RPA)
   Lee Huntington         : MR-EOM, pCC
   Robert Izsak           : Overlap fitted RIJCOSX, COSX-SCS-MP3, EOM
   Christian Kollmar      : KDIIS, OOCD, Brueckner-CCSD(T), CCSD density
   Simone Kossmann        : Meta GGA functionals, TD-DFT gradient, OOMP2, MP2 Hessian
   Martin Krupicka        : AUTO-CI
   Lucas Lang             : DCDCAS
   Dagmar Lenk            : GEPOL surface, SMD
   Dimitrios Liakos       : Extrapolation schemes; Compound Job, initial MDCI parallelization
   Dimitrios Manganas     : Further ROCIS development; embedding schemes
   Dimitrios Pantazis     : SARC Basis sets
   Taras Petrenko         : DFT Hessian,TD-DFT gradient, ASA, ECA, R-Raman, ABS, FL, XAS/XES, NRVS
   Peter Pinski           : DLPNO-MP2, DLPNO-MP2 Gradient
   Christoph Reimann      : Effective Core Potentials
   Marius Retegan         : Local ZFS, SOC
   Christoph Riplinger    : Optimizer, TS searches, QM/MM, DLPNO-CCSD(T), (RO)-DLPNO pert. Triples
   Tobias Risthaus        : Range-separated hybrids, TD-DFT gradient, RPA, STAB
   Michael Roemelt        : Original ROCIS implementation
   Masaaki Saitow         : Open-shell DLPNO-CCSD energy and density
   Barbara Sandhoefer     : DKH picture change effects
   Avijit Sen             : IP-ROCIS
   Kantharuban Sivalingam : CASSCF convergence, NEVPT2, FIC-MRCI
   Bernardo de Souza      : ESD, SOC TD-DFT
   Georgi Stoychev        : AutoAux, RI-MP2 NMR
   Willem Van den Heuvel  : Paramagnetic NMR
   Boris Wezisla          : Elementary symmetry handling
   Frank Wennmohs         : Technical directorship


 We gratefully acknowledge several colleagues who have allowed us to
 interface, adapt or use parts of their codes:
   Stefan Grimme, W. Hujo, H. Kruse,             : VdW corrections, initial TS optimization,
                  C. Bannwarth                     DFT functionals, gCP, sTDA/sTD-DF
   Ed Valeev, F. Pavosevic, A. Kumar             : LibInt (2-el integral package), F12 methods
   Garnet Chan, S. Sharma, J. Yang, R. Olivares  : DMRG
   Ulf Ekstrom                                   : XCFun DFT Library
   Mihaly Kallay                                 : mrcc  (arbitrary order and MRCC methods)
   Andreas Klamt, Michael Diedenhofen            : otool_cosmo (COSMO solvation model)
   Jiri Pittner, Ondrej Demel                    : Mk-CCSD
   Frank Weinhold                                : gennbo (NPA and NBO analysis)
   Christopher J. Cramer and Donald G. Truhlar   : smd solvation model
   Lars Goerigk                                  : TD-DFT with DH, B97 family of functionals
   V. Asgeirsson, H. Jonsson                     : NEB implementation
   FAccTs GmbH                                   : IRC, NEB, NEB-TS, Multilevel, MM, QM/MM, CI optimization
   S Lehtola, MJT Oliveira, MAL Marques          : LibXC Library


 Your calculation uses the libint2 library for the computation of 2-el integrals
 For citations please refer to: http://libint.valeyev.net

 Your ORCA version has been built with support for libXC version: 4.2.3
 For citations please refer to: https://tddft.org/programs/libxc/

 This ORCA versions uses:
   CBLAS   interface :  Fast vector & matrix operations
   LAPACKE interface :  Fast linear algebra routines
   SCALAPACK package :  Parallel linear algebra routines


Your calculation utilizes the atom-pairwise dispersion correction
with the zero-damping scheme (D30)
Cite in your paper:
S.Grimme, J.Antony, S.Ehrlich and H.Krieg, J.Chem.Phys., 132, (2010), 154104 
   

XCFun DFT library Copyright 2009-2010 Ulf Ekstrom and contributors.
See http://admol.org/xcfun for more information. This is free soft-
ware; see the source code for copying conditions. There is ABSOLUTELY
NO WARRANTY; not even for MERCHANTABILITY or FITNESS FOR A PARTICULAR
PURPOSE. For details see the documentation. Scientific users of this 
library should cite U. Ekstrom, L. Visscher, R. Bast, A. J. Thorvald-
sen and K. Ruud; J.Chem.Theor.Comp. 2010, DOI: 10.1021/ct100117s
XCFun Version 0.99 
----- Orbital basis set information -----
Your calculation utilizes the basis: def2-SVP
   F. Weigend and R. Ahlrichs, Phys. Chem. Chem. Phys. 7, 3297 (2005).

================================================================================
                                        WARNINGS
                       Please study these warnings very carefully!
================================================================================


INFO   : the flag for use of LIBINT has been found!

================================================================================
                                       INPUT FILE
================================================================================
NAME = config_2992.inp
|  1> ! wB97X-D3 SP def2-SVP
|  2> %pal
|  3> nprocs 16
|  4> end
|  5> 
|  6> * xyz 0 1
|  7> S 	 52.2179 	 -0.532474 	 83.9878 	 
|  8> C 	 50.5291 	 -0.481752 	 84.3732 	 
|  9> C 	 49.9504 	 -1.67265 	 84.0591 	 
| 10> C 	 50.8451 	 -2.58505 	 83.3944 	 
| 11> C 	 52.104 	 -2.05801 	 83.3195 	 
| 12> H 	 50.7481 	 -3.60942 	 83.0962 	 
| 13> C 	 48.5964 	 -2.07523 	 84.4762 	 
| 14> H 	 48.1949 	 -2.61131 	 83.6463 	 
| 15> H 	 47.9309 	 -1.1837 	 84.5503 	 
| 16> C 	 48.5436 	 -2.82329 	 85.7967 	 
| 17> H 	 49.1808 	 -3.73521 	 85.7785 	 
| 18> H 	 48.9661 	 -2.14484 	 86.5716 	 
| 19> C 	 47.1318 	 -3.30228 	 86.062 	 
| 20> H 	 46.925 	 -4.02457 	 85.3201 	 
| 21> H 	 46.8372 	 -3.73569 	 86.9811 	 
| 22> H 	 46.334 	 -2.52271 	 85.95 	 
| 23> S 	 54.7559 	 -2.52023 	 83.496 	 
| 24> C 	 55.6247 	 -3.40554 	 82.2744 	 
| 25> C 	 54.7973 	 -3.7473 	 81.2387 	 
| 26> C 	 53.4854 	 -3.3095 	 81.3856 	 
| 27> C 	 53.2385 	 -2.6528 	 82.6442 	 
| 28> H 	 55.3203 	 -4.23528 	 80.3906 	 
| 29> C 	 52.4494 	 -3.43814 	 80.2496 	 
| 30> H 	 51.455 	 -3.46769 	 80.7668 	 
| 31> H 	 52.6255 	 -4.38709 	 79.8351 	 
| 32> C 	 52.5849 	 -2.29822 	 79.1339 	 
| 33> H 	 53.6361 	 -2.45393 	 78.9166 	 
| 34> H 	 52.4467 	 -1.2333 	 79.5195 	 
| 35> C 	 51.5842 	 -2.40344 	 77.917 	 
| 36> H 	 50.6243 	 -2.90731 	 78.1767 	 
| 37> H 	 52.0481 	 -2.98909 	 77.0307 	 
| 38> H 	 51.3124 	 -1.37543 	 77.579 	 
| 39> H 	 49.8763 	 0.24838 	 84.8847 	 
| 40> H 	 56.6115 	 -3.79187 	 82.3945 	 
| 41> *
| 42> 
| 43>                          ****END OF INPUT****
================================================================================

                       ****************************
                       * Single Point Calculation *
                       ****************************

---------------------------------
CARTESIAN COORDINATES (ANGSTROEM)
---------------------------------
  S     52.217900   -0.532474   83.987800
  C     50.529100   -0.481752   84.373200
  C     49.950400   -1.672650   84.059100
  C     50.845100   -2.585050   83.394400
  C     52.104000   -2.058010   83.319500
  H     50.748100   -3.609420   83.096200
  C     48.596400   -2.075230   84.476200
  H     48.194900   -2.611310   83.646300
  H     47.930900   -1.183700   84.550300
  C     48.543600   -2.823290   85.796700
  H     49.180800   -3.735210   85.778500
  H     48.966100   -2.144840   86.571600
  C     47.131800   -3.302280   86.062000
  H     46.925000   -4.024570   85.320100
  H     46.837200   -3.735690   86.981100
  H     46.334000   -2.522710   85.950000
  S     54.755900   -2.520230   83.496000
  C     55.624700   -3.405540   82.274400
  C     54.797300   -3.747300   81.238700
  C     53.485400   -3.309500   81.385600
  C     53.238500   -2.652800   82.644200
  H     55.320300   -4.235280   80.390600
  C     52.449400   -3.438140   80.249600
  H     51.455000   -3.467690   80.766800
  H     52.625500   -4.387090   79.835100
  C     52.584900   -2.298220   79.133900
  H     53.636100   -2.453930   78.916600
  H     52.446700   -1.233300   79.519500
  C     51.584200   -2.403440   77.917000
  H     50.624300   -2.907310   78.176700
  H     52.048100   -2.989090   77.030700
  H     51.312400   -1.375430   77.579000
  H     49.876300    0.248380   84.884700
  H     56.611500   -3.791870   82.394500

----------------------------
CARTESIAN COORDINATES (A.U.)
----------------------------
  NO LB      ZA    FRAG     MASS         X           Y           Z
   0 S    16.0000    0    32.060   98.677530   -1.006230  158.713941
   1 C     6.0000    0    12.011   95.486161   -0.910379  159.442241
   2 C     6.0000    0    12.011   94.392576   -3.160850  158.848678
   3 C     6.0000    0    12.011   96.083314   -4.885037  157.592577
   4 C     6.0000    0    12.011   98.462290   -3.889075  157.451037
   5 H     1.0000    0     1.008   95.900011   -6.820815  157.029061
   6 C     6.0000    0    12.011   91.833887   -3.921616  159.636883
   7 H     1.0000    0     1.008   91.075162   -4.934661  158.068599
   8 H     1.0000    0     1.008   90.576274   -2.236869  159.776912
   9 C     6.0000    0    12.011   91.734110   -5.335245  162.132266
  10 H     1.0000    0     1.008   92.938243   -7.058524  162.097873
  11 H     1.0000    0     1.008   92.532519   -4.053160  163.596615
  12 C     6.0000    0    12.011   89.066194   -6.240405  162.633611
  13 H     1.0000    0     1.008   88.675399   -7.605335  161.231623
  14 H     1.0000    0     1.008   88.509481   -7.059431  164.370458
  15 H     1.0000    0     1.008   87.558571   -4.767231  162.421961
  16 S    16.0000    0    32.060  103.473655   -4.762544  157.784573
  17 C     6.0000    0    12.011  105.115449   -6.435538  155.476084
  18 C     6.0000    0    12.011  103.551890   -7.081371  153.518894
  19 C     6.0000    0    12.011  101.072758   -6.254049  153.796495
  20 C     6.0000    0    12.011  100.606185   -5.013065  156.174905
  21 H     1.0000    0     1.008  104.540217   -8.003519  151.916218
  22 C     6.0000    0    12.011   99.115002   -6.497143  151.649766
  23 H     1.0000    0     1.008   97.235858   -6.552984  152.627133
  24 H     1.0000    0     1.008   99.447783   -8.290399  150.866475
  25 C     6.0000    0    12.011   99.371060   -4.343006  149.541399
  26 H     1.0000    0     1.008  101.357540   -4.637256  149.130761
  27 H     1.0000    0     1.008   99.109900   -2.330599  150.270077
  28 C     6.0000    0    12.011   97.480011   -4.541843  147.241791
  29 H     1.0000    0     1.008   95.666063   -5.494020  147.732553
  30 H     1.0000    0     1.008   98.356655   -5.648561  145.566927
  31 H     1.0000    0     1.008   96.966383   -2.599186  146.603064
  32 H     1.0000    0     1.008   94.252548    0.469370  160.408836
  33 H     1.0000    0     1.008  106.980231   -7.165596  155.703040

--------------------------------
INTERNAL COORDINATES (ANGSTROEM)
--------------------------------
 S      0   0   0     0.000000000000     0.00000000     0.00000000
 C      1   0   0     1.732960276892     0.00000000     0.00000000
 C      2   1   0     1.360805109633   109.72334398     0.00000000
 C      3   2   1     1.440412420108   113.37251482   354.67334713
 C      4   3   2     1.366824927194   110.67929001     4.12617607
 H      4   3   2     1.071291807539   132.67945399   173.60878513
 C      3   2   1     1.472874423160   124.38683031   168.13931105
 H      7   3   2     1.066451136433   105.25525100   142.42849618
 H      7   3   2     1.114991838939   110.42389815    31.64874069
 C      7   3   2     1.518585477871   114.38427617   269.08506212
 H     10   7   3     1.112633437571   111.69119649   302.89888818
 H     10   7   3     1.113225342193   106.97036094    59.75004102
 C     10   7   3     1.514263765036   109.91242593   185.39643308
 H     13  10   7     1.055881003759   106.01461971    66.44446717
 H     13  10   7     1.058006709856   122.77792890   188.17166309
 H     13  10   7     1.121052284642   115.21583720   310.26543039
 S      5   4   3     2.697660688152   146.69532350   140.04844256
 C     17   5   4     1.740946235844   122.12682402    72.16115227
 C     18  17   5     1.368964991371   110.86700916     2.92501353
 C     19  18  17     1.390801948517   114.30636154     0.60961705
 C     20  19  18     1.440933190679   113.41228731   356.30999994
 H     19  18  17     1.109471536543   113.77952040   174.87596498
 C     20  19  18     1.542835133642   121.96355436   172.08726144
 H     23  20  19     1.121249482720   104.95641071   154.59048833
 H     23  20  19     1.050394003458   104.67328500    41.11738659
 C     23  20  19     1.600801157671   113.38870244   280.31652341
 H     26  23  20     1.084659547554    96.85964149    53.76010807
 H     26  23  20     1.140982561830   114.76061707   299.59280435
 C     26  23  20     1.579024176002   115.85093916   177.96772352
 H     29  26  23     1.114781178932   113.34589283    27.94653644
 H     29  26  23     1.159188001361   111.67158823   266.84859440
 H     29  26  23     1.115761533707   109.05313373   145.88670088
 H      2   1   3     1.104931141485   134.27022540   173.31760424
 H     18  17   5     1.066512596691   124.53631915   193.79354353

---------------------------
INTERNAL COORDINATES (A.U.)
---------------------------
 S      0   0   0     0.000000000000     0.00000000     0.00000000
 C      1   0   0     3.274820324289     0.00000000     0.00000000
 C      2   1   0     2.571548978848   109.72334398     0.00000000
 C      3   2   1     2.721984993902   113.37251482   354.67334713
 C      4   3   2     2.582924785414   110.67929001     4.12617607
 H      4   3   2     2.024448125762   132.67945399   173.60878513
 C      3   2   1     2.783329289430   124.38683031   168.13931105
 H      7   3   2     2.015300583068   105.25525100   142.42849618
 H      7   3   2     2.107029217151   110.42389815    31.64874069
 C      7   3   2     2.869710664126   114.38427617   269.08506212
 H     10   7   3     2.102572484452   111.69119649   302.89888818
 H     10   7   3     2.103691022085   106.97036094    59.75004102
 C     10   7   3     2.861543810438   109.91242593   185.39643308
 H     13  10   7     1.995325927115   106.01461971    66.44446717
 H     13  10   7     1.999342929479   122.77792890   188.17166309
 H     13  10   7     2.118481799779   115.21583720   310.26543039
 S      5   4   3     5.097839902853   146.69532350   140.04844256
 C     17   5   4     3.289911599627   122.12682402    72.16115227
 C     18  17   5     2.586968920617   110.86700916     2.92501353
 C     19  18  17     2.628234789222   114.30636154     0.60961705
 C     20  19  18     2.722969107660   113.41228731   356.30999994
 H     19  18  17     2.096597357448   113.77952040   174.87596498
 C     20  19  18     2.915535872375   121.96355436   172.08726144
 H     23  20  19     2.118854450142   104.95641071   154.59048833
 H     23  20  19     1.984956999248   104.67328500    41.11738659
 C     23  20  19     3.025075782862   113.38870244   280.31652341
 H     26  23  20     2.049709493420    96.85964149    53.76010807
 H     26  23  20     2.156144565438   114.76061707   299.59280435
 C     26  23  20     2.983923251485   115.85093916   177.96772352
 H     29  26  23     2.106631127430   113.34589283    27.94653644
 H     29  26  23     2.190547860300   111.67158823   266.84859440
 H     29  26  23     2.108483729470   109.05313373   145.88670088
 H      2   1   3     2.088017254248   134.27022540   173.31760424
 H     18  17   5     2.015416726123   124.53631915   193.79354353

---------------------
BASIS SET INFORMATION
---------------------
There are 3 groups of distinct atoms

 Group   1 Type S   : 10s7p1d contracted to 4s3p1d pattern {5311/511/1}
 Group   2 Type C   : 7s4p1d contracted to 3s2p1d pattern {511/31/1}
 Group   3 Type H   : 4s1p contracted to 2s1p pattern {31/1}

Atom   0S    basis set group =>   1
Atom   1C    basis set group =>   2
Atom   2C    basis set group =>   2
Atom   3C    basis set group =>   2
Atom   4C    basis set group =>   2
Atom   5H    basis set group =>   3
Atom   6C    basis set group =>   2
Atom   7H    basis set group =>   3
Atom   8H    basis set group =>   3
Atom   9C    basis set group =>   2
Atom  10H    basis set group =>   3
Atom  11H    basis set group =>   3
Atom  12C    basis set group =>   2
Atom  13H    basis set group =>   3
Atom  14H    basis set group =>   3
Atom  15H    basis set group =>   3
Atom  16S    basis set group =>   1
Atom  17C    basis set group =>   2
Atom  18C    basis set group =>   2
Atom  19C    basis set group =>   2
Atom  20C    basis set group =>   2
Atom  21H    basis set group =>   3
Atom  22C    basis set group =>   2
Atom  23H    basis set group =>   3
Atom  24H    basis set group =>   3
Atom  25C    basis set group =>   2
Atom  26H    basis set group =>   3
Atom  27H    basis set group =>   3
Atom  28C    basis set group =>   2
Atom  29H    basis set group =>   3
Atom  30H    basis set group =>   3
Atom  31H    basis set group =>   3
Atom  32H    basis set group =>   3
Atom  33H    basis set group =>   3


           ************************************************************
           *        Program running with 16 parallel MPI-processes    *
           *              working on a common directory               *
           ************************************************************
------------------------------------------------------------------------------
                           ORCA GTO INTEGRAL CALCULATION
------------------------------------------------------------------------------

                         BASIS SET STATISTICS AND STARTUP INFO

 # of primitive gaussian shells          ...  294
 # of primitive gaussian functions       ...  534
 # of contracted shells                  ...  154
 # of contracted basis functions         ...  322
 Highest angular momentum                ...    2
 Maximum contraction depth               ...    5
 Integral package used                   ... LIBINT
 Integral threshhold            Thresh   ...  1.000e-10
 Primitive cut-off              TCut     ...  1.000e-11


------------------------------ INTEGRAL EVALUATION ----------------------------


 * One electron integrals 
 Pre-screening matrix                    ... done
 Shell pair data                         ... done (   0.003 sec)



           ************************************************************
           *        Program running with 16 parallel MPI-processes    *
           *              working on a common directory               *
           ************************************************************
-------------------------------------------------------------------------------
                                 ORCA SCF
-------------------------------------------------------------------------------

------------
SCF SETTINGS
------------
Hamiltonian:
 Density Functional     Method          .... DFT(GTOs)
 Exchange Functional    Exchange        .... WB97X-D3
 Correlation Functional Correlation     .... WB97X-D3
 Gradients option       PostSCFGGA      .... off
 Hybrid DFT is turned on
   Fraction HF Exchange ScalHFX         ....  0.195728
   Scaling of DF-GGA-X  ScalDFX         ....  0.000000
   Scaling of DF-GGA-C  ScalDFC         ....  1.000000
   Scaling of DF-LDA-C  ScalLDAC        ....  1.000000
   Perturbative correction              ....  0.000000
   Density functional embedding theory  .... OFF
 Long-range corrected/Screened/Range-Separated Hybrid DFT is turned on
   Amount of maximum screened exact exchange              ....  0.804272
   Range separation parameter mu (erf(mu*r12)/r12)        ....  0.250000


General Settings:
 Integral files         IntName         .... config_2992
 Hartree-Fock type      HFTyp           .... RHF
 Total Charge           Charge          ....    0
 Multiplicity           Mult            ....    1
 Number of Electrons    NEL             ....  134
 Basis Dimension        Dim             ....  322
 Nuclear Repulsion      ENuc            ....   1276.0176438005 Eh

Convergence Acceleration:
 DIIS                   CNVDIIS         .... on
   Start iteration      DIISMaxIt       ....    12
   Startup error        DIISStart       ....  0.200000
   # of expansion vecs  DIISMaxEq       ....     5
   Bias factor          DIISBfac        ....   1.050
   Max. coefficient     DIISMaxC        ....  10.000
 Newton-Raphson         CNVNR           .... off
 SOSCF                  CNVSOSCF        .... on
   Start iteration      SOSCFMaxIt      ....   150
   Startup grad/error   SOSCFStart      ....  0.003300
 Level Shifting         CNVShift        .... on
   Level shift para.    LevelShift      ....    0.2500
   Turn off err/grad.   ShiftErr        ....    0.0010
 Zerner damping         CNVZerner       .... off
 Static damping         CNVDamp         .... on
   Fraction old density DampFac         ....    0.7000
   Max. Damping (<1)    DampMax         ....    0.9800
   Min. Damping (>=0)   DampMin         ....    0.0000
   Turn off err/grad.   DampErr         ....    0.1000
 Fernandez-Rico         CNVRico         .... off

SCF Procedure:
 Maximum # iterations   MaxIter         ....   125
 SCF integral mode      SCFMode         .... Direct
   Integral package                     .... LIBINT
 Reset frequency        DirectResetFreq ....    20
 Integral Threshold     Thresh          ....  1.000e-10 Eh
 Primitive CutOff       TCut            ....  1.000e-11 Eh

Convergence Tolerance:
 Convergence Check Mode ConvCheckMode   .... Total+1el-Energy
 Convergence forced     ConvForced      .... 0
 Energy Change          TolE            ....  1.000e-06 Eh
 1-El. energy change                    ....  1.000e-03 Eh
 Orbital Gradient       TolG            ....  5.000e-05
 Orbital Rotation angle TolX            ....  5.000e-05
 DIIS Error             TolErr          ....  1.000e-06


Diagonalization of the overlap matrix:
Smallest eigenvalue                        ... 6.002e-04
Time for diagonalization                   ...    0.015 sec
Threshold for overlap eigenvalues          ... 1.000e-08
Number of eigenvalues below threshold      ... 0
Time for construction of square roots      ...    0.022 sec
Total time needed                          ...    0.038 sec

-------------------
DFT GRID GENERATION
-------------------

General Integration Accuracy     IntAcc      ...  4.340
Radial Grid Type                 RadialGrid  ... Gauss-Chebyshev
Angular Grid (max. acc.)         AngularGrid ... Lebedev-110
Angular grid pruning method      GridPruning ... 3 (G Style)
Weight generation scheme         WeightScheme... Becke
Basis function cutoff            BFCut       ...    1.0000e-10
Integration weight cutoff        WCut        ...    1.0000e-14
Grids for H and He will be reduced by one unit

# of grid points (after initial pruning)     ...  41088 (   0.0 sec)
# of grid points (after weights+screening)   ...  37089 (   0.0 sec)
nearest neighbour list constructed           ...    0.0 sec
Grid point re-assignment to atoms done       ...    0.0 sec
Grid point division into batches done        ...    0.0 sec
Reduced shell lists constructed in    0.1 sec

Total number of grid points                  ...    37089
Total number of batches                      ...      599
Average number of points per batch           ...       61
Average number of grid points per atom       ...     1091
Average number of shells per batch           ...    77.28 (50.18%)
Average number of basis functions per batch  ...   152.87 (47.48%)
Average number of large shells per batch     ...    49.92 (64.60%)
Average number of large basis fcns per batch ...   102.85 (67.28%)
Maximum spatial batch extension              ...  12.99, 15.92, 18.54 au
Average spatial batch extension              ...   0.19,  0.25,  0.22 au

Time for grid setup =    0.183 sec

------------------------------
INITIAL GUESS: MODEL POTENTIAL
------------------------------
Loading Hartree-Fock densities                     ... done
Calculating cut-offs                               ... done
Setting up the integral package                    ... done
Initializing the effective Hamiltonian             ... done
Starting the Coulomb interaction                   ... done (   0.0 sec)
Reading the grid                                   ... done
Mapping shells                                     ... done
Starting the XC term evaluation                    ... done (   0.0 sec)
  promolecular density results
     # of electrons  =    133.983589166
     EX              =   -126.728530425
     EC              =     -4.619928472
     EX+EC           =   -131.348458897
Transforming the Hamiltonian                       ... done (   0.0 sec)
Diagonalizing the Hamiltonian                      ... done (   0.0 sec)
Back transforming the eigenvectors                 ... done (   0.0 sec)
Now organizing SCF variables                       ... done
                      ------------------
                      INITIAL GUESS DONE (   0.4 sec)
                      ------------------
--------------
SCF ITERATIONS
--------------
ITER       Energy         Delta-E        Max-DP      RMS-DP      [F,P]     Damp
               ***  Starting incremental Fock matrix formation  ***
  0  -1339.4145284757   0.000000000000 0.06703506  0.00160941  0.1650423 0.7000
  1  -1339.6023930840  -0.187864608259 0.04490681  0.00117237  0.0995706 0.7000
                               ***Turning on DIIS***
  2  -1339.6931700572  -0.090776973247 0.08508984  0.00219839  0.0514129 0.0000
  3  -1339.8300327622  -0.136862704992 0.04229157  0.00098927  0.0406219 0.0000
  4  -1339.8595971463  -0.029564384057 0.00788438  0.00020219  0.0079737 0.0000
                      *** Initiating the SOSCF procedure ***
                           *** Shutting down DIIS ***
                      *** Re-Reading the Fockian *** 
                      *** Removing any level shift *** 
ITER      Energy       Delta-E        Grad      Rot      Max-DP    RMS-DP
  5  -1339.86051904  -0.0009218899  0.001554  0.001554  0.003536  0.000099
               *** Restarting incremental Fock matrix formation ***
  6  -1339.86070326  -0.0001842262  0.001024  0.002825  0.002106  0.000063
  7  -1339.86076021  -0.0000569467  0.000625  0.003641  0.002925  0.000060
  8  -1339.86077514  -0.0000149274  0.000476  0.000926  0.000802  0.000019
  9  -1339.86077943  -0.0000042960  0.000130  0.000375  0.000370  0.000009
 10  -1339.86077989  -0.0000004612  0.000087  0.000241  0.000151  0.000004
                 **** Energy Check signals convergence ****
              ***Rediagonalizing the Fockian in SOSCF/NRSCF***

               *****************************************************
               *                     SUCCESS                       *
               *           SCF CONVERGED AFTER  11 CYCLES          *
               *****************************************************

Setting up the final grid:

General Integration Accuracy     IntAcc      ...  4.670
Radial Grid Type                 RadialGrid  ... Gauss-Chebyshev
Angular Grid (max. acc.)         AngularGrid ... Lebedev-302
Angular grid pruning method      GridPruning ... 3 (G Style)
Weight generation scheme         WeightScheme... Becke
Basis function cutoff            BFCut       ...    1.0000e-10
Integration weight cutoff        WCut        ...    1.0000e-14
Grids for H and He will be reduced by one unit

# of grid points (after initial pruning)     ... 161752 (   0.0 sec)
# of grid points (after weights+screening)   ... 143290 (   0.2 sec)
nearest neighbour list constructed           ...    0.0 sec
Grid point re-assignment to atoms done       ...    0.0 sec
Grid point division into batches done        ...    0.5 sec
Reduced shell lists constructed in    0.6 sec

Total number of grid points                  ...   143290
Total number of batches                      ...     2255
Average number of points per batch           ...       63
Average number of grid points per atom       ...     4214
Average number of shells per batch           ...    71.77 (46.61%)
Average number of basis functions per batch  ...   142.00 (44.10%)
Average number of large shells per batch     ...    44.61 (62.15%)
Average number of large basis fcns per batch ...    91.75 (64.61%)
Maximum spatial batch extension              ...  11.12, 16.06, 15.07 au
Average spatial batch extension              ...   0.13,  0.14,  0.14 au

Final grid set up in    1.0 sec
Final integration                            ... done (   0.4 sec)
Change in XC energy                          ...     0.006948565
Integrated number of electrons               ...   134.000201650
Previous integrated no of electrons          ...   133.995160460

----------------
TOTAL SCF ENERGY
----------------

Total Energy       :        -1339.85383156 Eh          -36459.27631 eV

Components:
Nuclear Repulsion  :         1276.01764380 Eh           34722.20533 eV
Electronic Energy  :        -2615.87147536 Eh          -71181.48164 eV
One Electron Energy:        -4368.59704193 Eh         -118875.56903 eV
Two Electron Energy:         1752.72556657 Eh           47694.08739 eV

Virial components:
Potential Energy   :        -2671.42135357 Eh          -72693.07068 eV
Kinetic Energy     :         1331.56752201 Eh           36233.79436 eV
Virial Ratio       :            2.00622297


DFT components:
N(Alpha)           :       67.000100824848 electrons
N(Beta)            :       67.000100824848 electrons
N(Total)           :      134.000201649697 electrons
E(XC)              :      -94.256571547109 Eh       
DFET-embed. en.    :        0.000000000000 Eh       

---------------
SCF CONVERGENCE
---------------

  Last Energy change         ...   -2.3046e-07  Tolerance :   1.0000e-06
  Last MAX-Density change    ...    3.6845e-05  Tolerance :   1.0000e-05
  Last RMS-Density change    ...    6.9539e-07  Tolerance :   1.0000e-06
  Last Orbital Gradient      ...    7.4417e-06  Tolerance :   5.0000e-05
  Last Orbital Rotation      ...    2.2226e-05  Tolerance :   5.0000e-05

             **** THE GBW FILE WAS UPDATED (config_2992.gbw) ****
             **** DENSITY FILE WAS UPDATED (config_2992.scfp) ****
             **** ENERGY FILE WAS UPDATED (config_2992.en.tmp) ****
             **** THE GBW FILE WAS UPDATED (config_2992.gbw) ****
             **** DENSITY FILE WAS UPDATED (config_2992.scfp) ****
----------------
ORBITAL ENERGIES
----------------

  NO   OCC          E(Eh)            E(eV) 
   0   2.0000     -88.967062     -2420.9168 
   1   2.0000     -88.965618     -2420.8775 
   2   2.0000     -10.330895      -281.1180 
   3   2.0000     -10.322263      -280.8831 
   4   2.0000     -10.312933      -280.6292 
   5   2.0000     -10.308972      -280.5214 
   6   2.0000     -10.308392      -280.5056 
   7   2.0000     -10.296746      -280.1887 
   8   2.0000     -10.294776      -280.1351 
   9   2.0000     -10.293873      -280.1105 
  10   2.0000     -10.293130      -280.0903 
  11   2.0000     -10.292404      -280.0706 
  12   2.0000     -10.291035      -280.0333 
  13   2.0000     -10.288170      -279.9553 
  14   2.0000     -10.286244      -279.9029 
  15   2.0000     -10.272802      -279.5371 
  16   2.0000      -8.083466      -219.9623 
  17   2.0000      -8.080668      -219.8862 
  18   2.0000      -6.041956      -164.4100 
  19   2.0000      -6.038982      -164.3290 
  20   2.0000      -6.037719      -164.2947 
  21   2.0000      -6.034954      -164.2194 
  22   2.0000      -6.034132      -164.1971 
  23   2.0000      -6.031798      -164.1336 
  24   2.0000      -1.019047       -27.7297 
  25   2.0000      -0.990800       -26.9610 
  26   2.0000      -0.922233       -25.0952 
  27   2.0000      -0.894970       -24.3534 
  28   2.0000      -0.876191       -23.8424 
  29   2.0000      -0.852306       -23.1924 
  30   2.0000      -0.843165       -22.9437 
  31   2.0000      -0.818236       -22.2653 
  32   2.0000      -0.782737       -21.2994 
  33   2.0000      -0.768559       -20.9136 
  34   2.0000      -0.709060       -19.2945 
  35   2.0000      -0.703349       -19.1391 
  36   2.0000      -0.692429       -18.8420 
  37   2.0000      -0.660477       -17.9725 
  38   2.0000      -0.641045       -17.4437 
  39   2.0000      -0.620324       -16.8799 
  40   2.0000      -0.589181       -16.0324 
  41   2.0000      -0.576026       -15.6745 
  42   2.0000      -0.563567       -15.3354 
  43   2.0000      -0.553512       -15.0618 
  44   2.0000      -0.527040       -14.3415 
  45   2.0000      -0.523158       -14.2358 
  46   2.0000      -0.516626       -14.0581 
  47   2.0000      -0.509394       -13.8613 
  48   2.0000      -0.506196       -13.7743 
  49   2.0000      -0.504416       -13.7259 
  50   2.0000      -0.493500       -13.4288 
  51   2.0000      -0.482280       -13.1235 
  52   2.0000      -0.470901       -12.8139 
  53   2.0000      -0.462389       -12.5822 
  54   2.0000      -0.459940       -12.5156 
  55   2.0000      -0.447352       -12.1731 
  56   2.0000      -0.440597       -11.9893 
  57   2.0000      -0.436663       -11.8822 
  58   2.0000      -0.428729       -11.6663 
  59   2.0000      -0.426818       -11.6143 
  60   2.0000      -0.423523       -11.5247 
  61   2.0000      -0.415297       -11.3008 
  62   2.0000      -0.409308       -11.1378 
  63   2.0000      -0.353999        -9.6328 
  64   2.0000      -0.333857        -9.0847 
  65   2.0000      -0.330505        -8.9935 
  66   2.0000      -0.287921        -7.8347 
  67   0.0000       0.029001         0.7892 
  68   0.0000       0.074654         2.0314 
  69   0.0000       0.112009         3.0479 
  70   0.0000       0.123149         3.3511 
  71   0.0000       0.140780         3.8308 
  72   0.0000       0.144644         3.9360 
  73   0.0000       0.149312         4.0630 
  74   0.0000       0.161455         4.3934 
  75   0.0000       0.164281         4.4703 
  76   0.0000       0.166779         4.5383 
  77   0.0000       0.175886         4.7861 
  78   0.0000       0.186467         5.0740 
  79   0.0000       0.191880         5.2213 
  80   0.0000       0.193211         5.2575 
  81   0.0000       0.197896         5.3850 
  82   0.0000       0.206902         5.6301 
  83   0.0000       0.216949         5.9035 
  84   0.0000       0.221911         6.0385 
  85   0.0000       0.226008         6.1500 
  86   0.0000       0.234621         6.3844 
  87   0.0000       0.242386         6.5957 
  88   0.0000       0.249596         6.7918 
  89   0.0000       0.252165         6.8618 
  90   0.0000       0.256690         6.9849 
  91   0.0000       0.262835         7.1521 
  92   0.0000       0.277905         7.5622 
  93   0.0000       0.294784         8.0215 
  94   0.0000       0.309326         8.4172 
  95   0.0000       0.316158         8.6031 
  96   0.0000       0.327485         8.9113 
  97   0.0000       0.335029         9.1166 
  98   0.0000       0.340859         9.2752 
  99   0.0000       0.357547         9.7293 
 100   0.0000       0.372864        10.1462 
 101   0.0000       0.395116        10.7516 
 102   0.0000       0.418245        11.3810 
 103   0.0000       0.423499        11.5240 
 104   0.0000       0.430690        11.7197 
 105   0.0000       0.447074        12.1655 
 106   0.0000       0.457116        12.4388 
 107   0.0000       0.481160        13.0930 
 108   0.0000       0.491868        13.3844 
 109   0.0000       0.499726        13.5982 
 110   0.0000       0.506400        13.7798 
 111   0.0000       0.509367        13.8606 
 112   0.0000       0.518004        14.0956 
 113   0.0000       0.521456        14.1895 
 114   0.0000       0.536150        14.5894 
 115   0.0000       0.538717        14.6592 
 116   0.0000       0.543156        14.7800 
 117   0.0000       0.552999        15.0479 
 118   0.0000       0.566945        15.4273 
 119   0.0000       0.577979        15.7276 
 120   0.0000       0.592422        16.1206 
 121   0.0000       0.597994        16.2722 
 122   0.0000       0.599560        16.3149 
 123   0.0000       0.607417        16.5287 
 124   0.0000       0.610323        16.6077 
 125   0.0000       0.621062        16.8999 
 126   0.0000       0.631922        17.1955 
 127   0.0000       0.646670        17.5968 
 128   0.0000       0.657813        17.9000 
 129   0.0000       0.662262        18.0211 
 130   0.0000       0.677735        18.4421 
 131   0.0000       0.678500        18.4629 
 132   0.0000       0.684778        18.6337 
 133   0.0000       0.695616        18.9287 
 134   0.0000       0.698207        18.9992 
 135   0.0000       0.710087        19.3224 
 136   0.0000       0.712718        19.3940 
 137   0.0000       0.723226        19.6800 
 138   0.0000       0.726955        19.7814 
 139   0.0000       0.733850        19.9691 
 140   0.0000       0.741607        20.1801 
 141   0.0000       0.746859        20.3231 
 142   0.0000       0.748879        20.3780 
 143   0.0000       0.752853        20.4862 
 144   0.0000       0.759692        20.6723 
 145   0.0000       0.763413        20.7735 
 146   0.0000       0.768612        20.9150 
 147   0.0000       0.770538        20.9674 
 148   0.0000       0.777535        21.1578 
 149   0.0000       0.782714        21.2987 
 150   0.0000       0.785167        21.3655 
 151   0.0000       0.794653        21.6236 
 152   0.0000       0.797573        21.7031 
 153   0.0000       0.799968        21.7682 
 154   0.0000       0.800365        21.7790 
 155   0.0000       0.802887        21.8477 
 156   0.0000       0.806724        21.9521 
 157   0.0000       0.811221        22.0744 
 158   0.0000       0.813556        22.1380 
 159   0.0000       0.821873        22.3643 
 160   0.0000       0.823232        22.4013 
 161   0.0000       0.827566        22.5192 
 162   0.0000       0.841983        22.9115 
 163   0.0000       0.844979        22.9931 
 164   0.0000       0.848453        23.0876 
 165   0.0000       0.857444        23.3322 
 166   0.0000       0.879998        23.9460 
 167   0.0000       0.887671        24.1548 
 168   0.0000       0.891217        24.2512 
 169   0.0000       0.896649        24.3991 
 170   0.0000       0.912801        24.8386 
 171   0.0000       0.932128        25.3645 
 172   0.0000       0.945097        25.7174 
 173   0.0000       0.952819        25.9275 
 174   0.0000       0.963404        26.2155 
 175   0.0000       0.966450        26.2984 
 176   0.0000       0.972625        26.4665 
 177   0.0000       0.980961        26.6933 
 178   0.0000       1.015241        27.6261 
 179   0.0000       1.029601        28.0169 
 180   0.0000       1.041462        28.3396 
 181   0.0000       1.076466        29.2921 
 182   0.0000       1.088338        29.6152 
 183   0.0000       1.099972        29.9318 
 184   0.0000       1.114586        30.3294 
 185   0.0000       1.136602        30.9285 
 186   0.0000       1.145032        31.1579 
 187   0.0000       1.157591        31.4996 
 188   0.0000       1.183606        32.2075 
 189   0.0000       1.189410        32.3655 
 190   0.0000       1.203854        32.7585 
 191   0.0000       1.220883        33.2219 
 192   0.0000       1.245719        33.8977 
 193   0.0000       1.250776        34.0353 
 194   0.0000       1.291828        35.1524 
 195   0.0000       1.313652        35.7463 
 196   0.0000       1.325243        36.0617 
 197   0.0000       1.355810        36.8935 
 198   0.0000       1.376929        37.4681 
 199   0.0000       1.392283        37.8859 
 200   0.0000       1.398122        38.0448 
 201   0.0000       1.406582        38.2750 
 202   0.0000       1.431220        38.9455 
 203   0.0000       1.436925        39.1007 
 204   0.0000       1.451675        39.5021 
 205   0.0000       1.489849        40.5409 
 206   0.0000       1.498325        40.7715 
 207   0.0000       1.510730        41.1091 
 208   0.0000       1.523844        41.4659 
 209   0.0000       1.559585        42.4385 
 210   0.0000       1.579045        42.9680 
 211   0.0000       1.620519        44.0966 
 212   0.0000       1.624537        44.2059 
 213   0.0000       1.634622        44.4803 
 214   0.0000       1.638023        44.5729 
 215   0.0000       1.660157        45.1752 
 216   0.0000       1.679055        45.6894 
 217   0.0000       1.696787        46.1719 
 218   0.0000       1.749279        47.6003 
 219   0.0000       1.769763        48.1577 
 220   0.0000       1.778120        48.3851 
 221   0.0000       1.785209        48.5780 
 222   0.0000       1.790870        48.7321 
 223   0.0000       1.802242        49.0415 
 224   0.0000       1.807332        49.1800 
 225   0.0000       1.825457        49.6732 
 226   0.0000       1.834713        49.9251 
 227   0.0000       1.844187        50.1829 
 228   0.0000       1.849450        50.3261 
 229   0.0000       1.863995        50.7219 
 230   0.0000       1.866604        50.7929 
 231   0.0000       1.870872        50.9090 
 232   0.0000       1.872454        50.9521 
 233   0.0000       1.880794        51.1790 
 234   0.0000       1.899883        51.6984 
 235   0.0000       1.911343        52.0103 
 236   0.0000       1.913135        52.0590 
 237   0.0000       1.915915        52.1347 
 238   0.0000       1.925181        52.3868 
 239   0.0000       1.927988        52.4632 
 240   0.0000       1.936944        52.7069 
 241   0.0000       1.945327        52.9350 
 242   0.0000       1.961672        53.3798 
 243   0.0000       1.962583        53.4046 
 244   0.0000       1.972079        53.6630 
 245   0.0000       1.993315        54.2409 
 246   0.0000       2.003596        54.5206 
 247   0.0000       2.009153        54.6718 
 248   0.0000       2.020474        54.9799 
 249   0.0000       2.032162        55.2980 
 250   0.0000       2.037836        55.4523 
 251   0.0000       2.041916        55.5634 
 252   0.0000       2.051921        55.8356 
 253   0.0000       2.063645        56.1546 
 254   0.0000       2.090246        56.8785 
 255   0.0000       2.097481        57.0753 
 256   0.0000       2.105098        57.2826 
 257   0.0000       2.115449        57.5643 
 258   0.0000       2.137759        58.1714 
 259   0.0000       2.140362        58.2422 
 260   0.0000       2.175412        59.1960 
 261   0.0000       2.184321        59.4384 
 262   0.0000       2.195750        59.7494 
 263   0.0000       2.202461        59.9320 
 264   0.0000       2.211365        60.1743 
 265   0.0000       2.226255        60.5795 
 266   0.0000       2.254278        61.3420 
 267   0.0000       2.275515        61.9199 
 268   0.0000       2.291552        62.3563 
 269   0.0000       2.300414        62.5974 
 270   0.0000       2.329519        63.3894 
 271   0.0000       2.340580        63.6904 
 272   0.0000       2.368978        64.4632 
 273   0.0000       2.391170        65.0670 
 274   0.0000       2.400836        65.3301 
 275   0.0000       2.412077        65.6360 
 276   0.0000       2.427941        66.0676 
 277   0.0000       2.436550        66.3019 
 278   0.0000       2.452628        66.7394 
 279   0.0000       2.477783        67.4239 
 280   0.0000       2.494111        67.8682 
 281   0.0000       2.506589        68.2078 
 282   0.0000       2.512334        68.3641 
 283   0.0000       2.531625        68.8890 
 284   0.0000       2.549794        69.3834 
 285   0.0000       2.554230        69.5041 
 286   0.0000       2.569459        69.9185 
 287   0.0000       2.579343        70.1875 
 288   0.0000       2.597158        70.6723 
 289   0.0000       2.616630        71.2021 
 290   0.0000       2.632406        71.6314 
 291   0.0000       2.645914        71.9990 
 292   0.0000       2.663439        72.4759 
 293   0.0000       2.692191        73.2582 
 294   0.0000       2.694316        73.3161 
 295   0.0000       2.708920        73.7135 
 296   0.0000       2.741419        74.5978 
 297   0.0000       2.768201        75.3266 
 298   0.0000       2.778258        75.6002 
 299   0.0000       2.815748        76.6204 
 300   0.0000       2.838008        77.2261 
 301   0.0000       2.845480        77.4295 
 302   0.0000       2.878409        78.3255 
 303   0.0000       2.905841        79.0720 
 304   0.0000       2.946605        80.1812 
 305   0.0000       2.960437        80.5576 
 306   0.0000       2.970474        80.8307 
 307   0.0000       2.985201        81.2315 
 308   0.0000       3.012816        81.9829 
 309   0.0000       3.031229        82.4839 
 310   0.0000       3.041938        82.7753 
 311   0.0000       3.055177        83.1356 
 312   0.0000       3.084224        83.9260 
 313   0.0000       3.115612        84.7801 
 314   0.0000       3.134070        85.2824 
 315   0.0000       3.163442        86.0816 
 316   0.0000       3.183081        86.6160 
 317   0.0000       3.204532        87.1997 
 318   0.0000       3.229778        87.8867 
 319   0.0000       3.277308        89.1801 
 320   0.0000       3.386625        92.1547 
 321   0.0000       3.444606        93.7325 

                    ********************************
                    * MULLIKEN POPULATION ANALYSIS *
                    ********************************

-----------------------
MULLIKEN ATOMIC CHARGES
-----------------------
   0 S :    0.128773
   1 C :   -0.107537
   2 C :   -0.099819
   3 C :    0.013211
   4 C :   -0.123098
   5 H :    0.012781
   6 C :    0.050640
   7 H :    0.012771
   8 H :    0.017248
   9 C :   -0.052251
  10 H :    0.036106
  11 H :    0.032146
  12 C :   -0.016610
  13 H :    0.015021
  14 H :    0.023692
  15 H :    0.019078
  16 S :    0.097355
  17 C :   -0.086986
  18 C :   -0.068552
  19 C :   -0.045697
  20 C :   -0.169329
  21 H :    0.036257
  22 C :    0.096578
  23 H :    0.019144
  24 H :    0.013151
  25 C :   -0.086477
  26 H :    0.029902
  27 H :    0.052922
  28 C :   -0.086208
  29 H :    0.043108
  30 H :    0.049644
  31 H :    0.044525
  32 H :    0.047119
  33 H :    0.051393
Sum of atomic charges:   -0.0000000

--------------------------------
MULLIKEN REDUCED ORBITAL CHARGES
--------------------------------
  0 S s       :     5.837975  s :     5.837975
      pz      :     3.526704  p :     9.911795
      px      :     3.187774
      py      :     3.197317
      dz2     :     0.019747  d :     0.121457
      dxz     :     0.017799
      dyz     :     0.020345
      dx2y2   :     0.044534
      dxy     :     0.019032
  1 C s       :     3.167472  s :     3.167472
      pz      :     1.080033  p :     2.905306
      px      :     0.817198
      py      :     1.008076
      dz2     :     0.003192  d :     0.034758
      dxz     :     0.006564
      dyz     :     0.005325
      dx2y2   :     0.011532
      dxy     :     0.008145
  2 C s       :     3.077796  s :     3.077796
      pz      :     0.985809  p :     2.975064
      px      :     1.010219
      py      :     0.979036
      dz2     :     0.005825  d :     0.046960
      dxz     :     0.008028
      dyz     :     0.008031
      dx2y2   :     0.011281
      dxy     :     0.013795
  3 C s       :     3.200179  s :     3.200179
      pz      :     1.002267  p :     2.752110
      px      :     0.920009
      py      :     0.829834
      dz2     :     0.003909  d :     0.034501
      dxz     :     0.006508
      dyz     :     0.004210
      dx2y2   :     0.010747
      dxy     :     0.009127
  4 C s       :     3.028170  s :     3.028170
      pz      :     1.063006  p :     3.045856
      px      :     1.020764
      py      :     0.962086
      dz2     :     0.005377  d :     0.049072
      dxz     :     0.009936
      dyz     :     0.008198
      dx2y2   :     0.015225
      dxy     :     0.010336
  5 H s       :     0.962140  s :     0.962140
      pz      :     0.006291  p :     0.025079
      px      :     0.004013
      py      :     0.014776
  6 C s       :     2.944038  s :     2.944038
      pz      :     0.975474  p :     2.967502
      px      :     0.984985
      py      :     1.007043
      dz2     :     0.008770  d :     0.037820
      dxz     :     0.007395
      dyz     :     0.007873
      dx2y2   :     0.005388
      dxy     :     0.008394
  7 H s       :     0.962899  s :     0.962899
      pz      :     0.010393  p :     0.024331
      px      :     0.006525
      py      :     0.007413
  8 H s       :     0.960707  s :     0.960707
      pz      :     0.004148  p :     0.022045
      px      :     0.007511
      py      :     0.010386
  9 C s       :     3.058832  s :     3.058832
      pz      :     0.975575  p :     2.956283
      px      :     0.989140
      py      :     0.991568
      dz2     :     0.007977  d :     0.037137
      dxz     :     0.005772
      dyz     :     0.008059
      dx2y2   :     0.005621
      dxy     :     0.009708
 10 H s       :     0.942095  s :     0.942095
      pz      :     0.003772  p :     0.021799
      px      :     0.007410
      py      :     0.010617
 11 H s       :     0.946505  s :     0.946505
      pz      :     0.008522  p :     0.021349
      px      :     0.005018
      py      :     0.007808
 12 C s       :     2.982966  s :     2.982966
      pz      :     1.016503  p :     3.003935
      px      :     0.960964
      py      :     1.026467
      dz2     :     0.005200  d :     0.029709
      dxz     :     0.004298
      dyz     :     0.007562
      dx2y2   :     0.004406
      dxy     :     0.008243
 13 H s       :     0.958894  s :     0.958894
      pz      :     0.010534  p :     0.026085
      px      :     0.005398
      py      :     0.010153
 14 H s       :     0.950340  s :     0.950340
      pz      :     0.013187  p :     0.025969
      px      :     0.005134
      py      :     0.007647
 15 H s       :     0.957584  s :     0.957584
      pz      :     0.005518  p :     0.023338
      px      :     0.008454
      py      :     0.009366
 16 S s       :     5.845067  s :     5.845067
      pz      :     3.411443  p :     9.946780
      px      :     3.004548
      py      :     3.530789
      dz2     :     0.013350  d :     0.110798
      dxz     :     0.037978
      dyz     :     0.015635
      dx2y2   :     0.020399
      dxy     :     0.023436
 17 C s       :     3.138896  s :     3.138896
      pz      :     0.955890  p :     2.912403
      px      :     0.938692
      py      :     1.017822
      dz2     :     0.008648  d :     0.035686
      dxz     :     0.009185
      dyz     :     0.006856
      dx2y2   :     0.005315
      dxy     :     0.005683
 18 C s       :     3.183868  s :     3.183868
      pz      :     0.911243  p :     2.848157
      px      :     0.935134
      py      :     1.001780
      dz2     :     0.007259  d :     0.036526
      dxz     :     0.010800
      dyz     :     0.004325
      dx2y2   :     0.005682
      dxy     :     0.008460
 19 C s       :     3.058776  s :     3.058776
      pz      :     0.980967  p :     2.944374
      px      :     0.969269
      py      :     0.994138
      dz2     :     0.010505  d :     0.042547
      dxz     :     0.010242
      dyz     :     0.006854
      dx2y2   :     0.008099
      dxy     :     0.006848
 20 C s       :     3.083266  s :     3.083266
      pz      :     1.014836  p :     3.043791
      px      :     0.916145
      py      :     1.112810
      dz2     :     0.008682  d :     0.042272
      dxz     :     0.013887
      dyz     :     0.005935
      dx2y2   :     0.006782
      dxy     :     0.006987
 21 H s       :     0.940699  s :     0.940699
      pz      :     0.010350  p :     0.023044
      px      :     0.005934
      py      :     0.006759
 22 C s       :     2.949267  s :     2.949267
      pz      :     0.928734  p :     2.920239
      px      :     0.993409
      py      :     0.998096
      dz2     :     0.004672  d :     0.033916
      dxz     :     0.009805
      dyz     :     0.007822
      dx2y2   :     0.008764
      dxy     :     0.002852
 23 H s       :     0.959126  s :     0.959126
      pz      :     0.006058  p :     0.021730
      px      :     0.011750
      py      :     0.003922
 24 H s       :     0.962133  s :     0.962133
      pz      :     0.006245  p :     0.024716
      px      :     0.005538
      py      :     0.012933
 25 C s       :     3.107465  s :     3.107465
      pz      :     0.956497  p :     2.946901
      px      :     0.997091
      py      :     0.993313
      dz2     :     0.006040  d :     0.032112
      dxz     :     0.006086
      dyz     :     0.007531
      dx2y2   :     0.010310
      dxy     :     0.002145
 26 H s       :     0.946449  s :     0.946449
      pz      :     0.004518  p :     0.023648
      px      :     0.013798
      py      :     0.005333
 27 H s       :     0.926561  s :     0.926561
      pz      :     0.004369  p :     0.020517
      px      :     0.004294
      py      :     0.011854
 28 C s       :     3.075954  s :     3.075954
      pz      :     0.980509  p :     2.985199
      px      :     0.988866
      py      :     1.015825
      dz2     :     0.004702  d :     0.025056
      dxz     :     0.005724
      dyz     :     0.005243
      dx2y2   :     0.004980
      dxy     :     0.004408
 29 H s       :     0.934496  s :     0.934496
      pz      :     0.004445  p :     0.022397
      px      :     0.011110
      py      :     0.006842
 30 H s       :     0.930069  s :     0.930069
      pz      :     0.008745  p :     0.020287
      px      :     0.005208
      py      :     0.006334
 31 H s       :     0.932873  s :     0.932873
      pz      :     0.004943  p :     0.022602
      px      :     0.004996
      py      :     0.012663
 32 H s       :     0.929035  s :     0.929035
      pz      :     0.007627  p :     0.023846
      px      :     0.007251
      py      :     0.008969
 33 H s       :     0.924144  s :     0.924144
      pz      :     0.003708  p :     0.024463
      px      :     0.014352
      py      :     0.006403


                     *******************************
                     * LOEWDIN POPULATION ANALYSIS *
                     *******************************

----------------------
LOEWDIN ATOMIC CHARGES
----------------------
   0 S :    0.447784
   1 C :   -0.217379
   2 C :   -0.061722
   3 C :   -0.070389
   4 C :   -0.218111
   5 H :    0.030620
   6 C :   -0.035837
   7 H :    0.025531
   8 H :    0.032059
   9 C :   -0.036515
  10 H :    0.029950
  11 H :    0.027228
  12 C :   -0.067757
  13 H :    0.021570
  14 H :    0.020333
  15 H :    0.027084
  16 S :    0.417077
  17 C :   -0.187761
  18 C :   -0.084196
  19 C :   -0.058862
  20 C :   -0.197861
  21 H :    0.042137
  22 C :   -0.027620
  23 H :    0.028446
  24 H :    0.020825
  25 C :   -0.043812
  26 H :    0.022795
  27 H :    0.036352
  28 C :   -0.081890
  29 H :    0.028771
  30 H :    0.034709
  31 H :    0.030600
  32 H :    0.039832
  33 H :    0.026006

-------------------------------
LOEWDIN REDUCED ORBITAL CHARGES
-------------------------------
  0 S s       :     5.462246  s :     5.462246
      pz      :     3.491508  p :     9.936441
      px      :     3.211500
      py      :     3.233434
      dz2     :     0.024090  d :     0.153529
      dxz     :     0.020920
      dyz     :     0.026411
      dx2y2   :     0.059094
      dxy     :     0.023015
  1 C s       :     2.925214  s :     2.925214
      pz      :     1.108842  p :     3.209472
      px      :     0.999068
      py      :     1.101562
      dz2     :     0.006548  d :     0.082693
      dxz     :     0.014276
      dyz     :     0.011092
      dx2y2   :     0.028635
      dxy     :     0.022142
  2 C s       :     2.851769  s :     2.851769
      pz      :     0.986356  p :     3.092881
      px      :     1.043393
      py      :     1.063132
      dz2     :     0.012633  d :     0.117071
      dxz     :     0.018221
      dyz     :     0.018995
      dx2y2   :     0.029241
      dxy     :     0.037981
  3 C s       :     2.859794  s :     2.859794
      pz      :     1.035836  p :     3.119394
      px      :     1.042778
      py      :     1.040781
      dz2     :     0.008949  d :     0.091201
      dxz     :     0.015211
      dyz     :     0.009513
      dx2y2   :     0.029982
      dxy     :     0.027547
  4 C s       :     2.889509  s :     2.889509
      pz      :     1.060253  p :     3.209249
      px      :     1.100596
      py      :     1.048399
      dz2     :     0.012235  d :     0.119353
      dxz     :     0.022767
      dyz     :     0.017809
      dx2y2   :     0.039021
      dxy     :     0.027521
  5 H s       :     0.895241  s :     0.895241
      pz      :     0.019275  p :     0.074140
      px      :     0.012817
      py      :     0.042048
  6 C s       :     2.816307  s :     2.816307
      pz      :     1.039262  p :     3.123652
      px      :     1.028950
      py      :     1.055440
      dz2     :     0.021874  d :     0.095878
      dxz     :     0.017446
      dyz     :     0.020698
      dx2y2   :     0.013912
      dxy     :     0.021947
  7 H s       :     0.901896  s :     0.901896
      pz      :     0.031362  p :     0.072574
      px      :     0.019534
      py      :     0.021678
  8 H s       :     0.905347  s :     0.905347
      pz      :     0.011975  p :     0.062594
      px      :     0.021778
      py      :     0.028841
  9 C s       :     2.838568  s :     2.838568
      pz      :     1.027958  p :     3.107786
      px      :     1.033971
      py      :     1.045857
      dz2     :     0.019495  d :     0.090161
      dxz     :     0.012756
      dyz     :     0.020915
      dx2y2   :     0.013597
      dxy     :     0.023398
 10 H s       :     0.906967  s :     0.906967
      pz      :     0.011732  p :     0.063083
      px      :     0.021209
      py      :     0.030142
 11 H s       :     0.910003  s :     0.910003
      pz      :     0.025340  p :     0.062769
      px      :     0.015695
      py      :     0.021734
 12 C s       :     2.818742  s :     2.818742
      pz      :     1.081527  p :     3.172946
      px      :     1.020558
      py      :     1.070861
      dz2     :     0.014823  d :     0.076069
      dxz     :     0.009902
      dyz     :     0.018968
      dx2y2   :     0.011376
      dxy     :     0.021001
 13 H s       :     0.905356  s :     0.905356
      pz      :     0.028616  p :     0.073074
      px      :     0.016492
      py      :     0.027966
 14 H s       :     0.906074  s :     0.906074
      pz      :     0.035376  p :     0.073593
      px      :     0.017130
      py      :     0.021087
 15 H s       :     0.911438  s :     0.911438
      pz      :     0.012972  p :     0.061478
      px      :     0.024534
      py      :     0.023972
 16 S s       :     5.499469  s :     5.499469
      pz      :     3.424987  p :     9.946789
      px      :     3.015743
      py      :     3.506059
      dz2     :     0.014413  d :     0.136665
      dxz     :     0.048683
      dyz     :     0.017821
      dx2y2   :     0.026601
      dxy     :     0.029147
 17 C s       :     2.924616  s :     2.924616
      pz      :     1.052397  p :     3.178926
      px      :     1.066797
      py      :     1.059732
      dz2     :     0.020272  d :     0.084219
      dxz     :     0.024289
      dyz     :     0.015583
      dx2y2   :     0.011937
      dxy     :     0.012138
 18 C s       :     2.862908  s :     2.862908
      pz      :     1.049137  p :     3.125172
      px      :     1.050840
      py      :     1.025195
      dz2     :     0.019149  d :     0.096116
      dxz     :     0.031458
      dyz     :     0.010436
      dx2y2   :     0.014693
      dxy     :     0.020379
 19 C s       :     2.865669  s :     2.865669
      pz      :     1.027650  p :     3.087716
      px      :     1.051442
      py      :     1.008624
      dz2     :     0.027089  d :     0.105477
      dxz     :     0.027310
      dyz     :     0.016372
      dx2y2   :     0.019299
      dxy     :     0.015407
 20 C s       :     2.915722  s :     2.915722
      pz      :     1.075720  p :     3.180943
      px      :     1.004832
      py      :     1.100391
      dz2     :     0.020834  d :     0.101196
      dxz     :     0.034023
      dyz     :     0.014350
      dx2y2   :     0.015751
      dxy     :     0.016237
 21 H s       :     0.891785  s :     0.891785
      pz      :     0.028914  p :     0.066078
      px      :     0.017736
      py      :     0.019429
 22 C s       :     2.840267  s :     2.840267
      pz      :     1.010425  p :     3.104633
      px      :     1.042574
      py      :     1.051634
      dz2     :     0.010229  d :     0.082720
      dxz     :     0.024362
      dyz     :     0.020536
      dx2y2   :     0.022351
      dxy     :     0.005242
 23 H s       :     0.908282  s :     0.908282
      pz      :     0.018384  p :     0.063272
      px      :     0.033481
      py      :     0.011407
 24 H s       :     0.903300  s :     0.903300
      pz      :     0.019781  p :     0.075874
      px      :     0.017085
      py      :     0.039009
 25 C s       :     2.865164  s :     2.865164
      pz      :     1.015709  p :     3.102397
      px      :     1.054526
      py      :     1.032163
      dz2     :     0.013273  d :     0.076251
      dxz     :     0.014978
      dyz     :     0.018338
      dx2y2   :     0.025545
      dxy     :     0.004116
 26 H s       :     0.906370  s :     0.906370
      pz      :     0.014905  p :     0.070835
      px      :     0.040733
      py      :     0.015196
 27 H s       :     0.904379  s :     0.904379
      pz      :     0.013552  p :     0.059268
      px      :     0.010989
      py      :     0.034728
 28 C s       :     2.871812  s :     2.871812
      pz      :     1.034106  p :     3.147534
      px      :     1.045792
      py      :     1.067637
      dz2     :     0.011286  d :     0.062544
      dxz     :     0.015490
      dyz     :     0.012261
      dx2y2   :     0.012300
      dxy     :     0.011207
 29 H s       :     0.908048  s :     0.908048
      pz      :     0.012946  p :     0.063180
      px      :     0.032478
      py      :     0.017757
 30 H s       :     0.909450  s :     0.909450
      pz      :     0.025477  p :     0.055842
      px      :     0.013835
      py      :     0.016530
 31 H s       :     0.906729  s :     0.906729
      pz      :     0.014008  p :     0.062671
      px      :     0.013318
      py      :     0.035345
 32 H s       :     0.888183  s :     0.888183
      pz      :     0.023238  p :     0.071985
      px      :     0.023466
      py      :     0.025281
 33 H s       :     0.896437  s :     0.896437
      pz      :     0.013613  p :     0.077557
      px      :     0.042346
      py      :     0.021598


                      *****************************
                      * MAYER POPULATION ANALYSIS *
                      *****************************

  NA   - Mulliken gross atomic population
  ZA   - Total nuclear charge
  QA   - Mulliken gross atomic charge
  VA   - Mayer's total valence
  BVA  - Mayer's bonded valence
  FA   - Mayer's free valence

  ATOM       NA         ZA         QA         VA         BVA        FA
  0 S     15.8712    16.0000     0.1288     2.5045     2.5045    -0.0000
  1 C      6.1075     6.0000    -0.1075     3.8320     3.8320    -0.0000
  2 C      6.0998     6.0000    -0.0998     4.0366     4.0366    -0.0000
  3 C      5.9868     6.0000     0.0132     3.9246     3.9246     0.0000
  4 C      6.1231     6.0000    -0.1231     3.9174     3.9174    -0.0000
  5 H      0.9872     1.0000     0.0128     1.0031     1.0031    -0.0000
  6 C      5.9494     6.0000     0.0506     3.9645     3.9645    -0.0000
  7 H      0.9872     1.0000     0.0128     0.9908     0.9908    -0.0000
  8 H      0.9828     1.0000     0.0172     0.9903     0.9903    -0.0000
  9 C      6.0523     6.0000    -0.0523     4.0493     4.0493     0.0000
 10 H      0.9639     1.0000     0.0361     0.9806     0.9806     0.0000
 11 H      0.9679     1.0000     0.0321     0.9838     0.9838     0.0000
 12 C      6.0166     6.0000    -0.0166     3.9905     3.9905    -0.0000
 13 H      0.9850     1.0000     0.0150     0.9915     0.9915     0.0000
 14 H      0.9763     1.0000     0.0237     0.9883     0.9883    -0.0000
 15 H      0.9809     1.0000     0.0191     0.9910     0.9910     0.0000
 16 S     15.9026    16.0000     0.0974     2.5257     2.5257    -0.0000
 17 C      6.0870     6.0000    -0.0870     3.8590     3.8590    -0.0000
 18 C      6.0686     6.0000    -0.0686     3.9705     3.9705     0.0000
 19 C      6.0457     6.0000    -0.0457     3.9852     3.9852    -0.0000
 20 C      6.1693     6.0000    -0.1693     3.8942     3.8942     0.0000
 21 H      0.9637     1.0000     0.0363     0.9930     0.9930    -0.0000
 22 C      5.9034     6.0000     0.0966     3.9352     3.9352    -0.0000
 23 H      0.9809     1.0000     0.0191     1.0038     1.0038     0.0000
 24 H      0.9868     1.0000     0.0132     0.9864     0.9864    -0.0000
 25 C      6.0865     6.0000    -0.0865     4.0433     4.0433    -0.0000
 26 H      0.9701     1.0000     0.0299     0.9833     0.9833    -0.0000
 27 H      0.9471     1.0000     0.0529     0.9767     0.9767    -0.0000
 28 C      6.0862     6.0000    -0.0862     3.9741     3.9741    -0.0000
 29 H      0.9569     1.0000     0.0431     0.9889     0.9889     0.0000
 30 H      0.9504     1.0000     0.0496     0.9817     0.9817    -0.0000
 31 H      0.9555     1.0000     0.0445     0.9833     0.9833     0.0000
 32 H      0.9529     1.0000     0.0471     1.0081     1.0081     0.0000
 33 H      0.9486     1.0000     0.0514     0.9962     0.9962    -0.0000

  Mayer bond orders larger than 0.100000
B(  0-S ,  1-C ) :   1.1176 B(  0-S ,  4-C ) :   1.1778 B(  1-C ,  2-C ) :   1.6340 
B(  1-C , 32-H ) :   0.9615 B(  2-C ,  3-C ) :   1.2143 B(  2-C ,  6-C ) :   1.0406 
B(  3-C ,  4-C ) :   1.5768 B(  3-C ,  5-H ) :   0.9987 B(  4-C , 20-C ) :   1.0257 
B(  6-C ,  7-H ) :   0.9327 B(  6-C ,  8-H ) :   0.9335 B(  6-C ,  9-C ) :   1.0606 
B(  9-C , 10-H ) :   0.9561 B(  9-C , 11-H ) :   0.9536 B(  9-C , 12-C ) :   1.0709 
B( 12-C , 13-H ) :   0.9731 B( 12-C , 14-H ) :   0.9751 B( 12-C , 15-H ) :   0.9721 
B( 16-S , 17-C ) :   1.1702 B( 16-S , 20-C ) :   1.1686 B( 17-C , 18-C ) :   1.5875 
B( 17-C , 20-C ) :   0.1187 B( 17-C , 33-H ) :   0.9674 B( 18-C , 19-C ) :   1.2797 
B( 18-C , 21-H ) :   0.9845 B( 19-C , 20-C ) :   1.5293 B( 19-C , 22-C ) :   1.0361 
B( 22-C , 23-H ) :   0.9326 B( 22-C , 24-H ) :   0.9353 B( 22-C , 25-C ) :   1.0436 
B( 25-C , 26-H ) :   0.9628 B( 25-C , 27-H ) :   0.9662 B( 25-C , 28-C ) :   1.0531 
B( 28-C , 29-H ) :   0.9775 B( 28-C , 30-H ) :   0.9769 B( 28-C , 31-H ) :   0.9808 


-------
TIMINGS
-------

Total SCF time: 0 days 0 hours 0 min 27 sec 

Total time                  ....      27.183 sec
Sum of individual times     ....      26.183 sec  ( 96.3%)

Fock matrix formation       ....      24.379 sec  ( 89.7%)
  XC integration            ....       1.663 sec  (  6.8% of F)
    Basis function eval.    ....       0.210 sec  ( 12.7% of XC)
    Density eval.           ....       0.149 sec  (  8.9% of XC)
    XC-Functional eval.     ....       0.181 sec  ( 10.9% of XC)
    XC-Potential eval.      ....       0.179 sec  ( 10.8% of XC)
Diagonalization             ....       0.134 sec  (  0.5%)
Density matrix formation    ....       0.018 sec  (  0.1%)
Population analysis         ....       0.059 sec  (  0.2%)
Initial guess               ....       0.192 sec  (  0.7%)
Orbital Transformation      ....       0.000 sec  (  0.0%)
Orbital Orthonormalization  ....       0.000 sec  (  0.0%)
DIIS solution               ....       0.138 sec  (  0.5%)
SOSCF solution              ....       0.125 sec  (  0.5%)
Grid generation             ....       1.138 sec  (  4.2%)


-------------------------------------------------------------------------------
                          DFT DISPERSION CORRECTION                            
                                                                               
                              DFTD3 V3.1  Rev 1                                
                              USING zero damping                               
-------------------------------------------------------------------------------
The omegaB97X-D3 functional is recognized. Fit by Chai et al.
Active option DFTDOPT                   ...         3   

molecular C6(AA) [au] = 14128.902245 


            DFT-D V3
 parameters
 s6 scaling factor         :     1.0000 
 rs6 scaling factor        :     1.2810 
 s8 scaling factor         :     1.0000 
 rs8 scaling factor        :     1.0940 
 Damping factor alpha6     :    14.0000 
 Damping factor alpha8     :    16.0000 
 ad hoc parameters k1-k3   :    16.0000     1.3333    -4.0000 

 Edisp/kcal,au: -8.536993409318  -0.013604563519 
 E6   /kcal   :  -3.914123619 
 E8   /kcal   :  -4.622869790 
 % E8         :  54.151029153 

-------------------------   ----------------
Dispersion correction           -0.013604564
-------------------------   ----------------


-------------------------   --------------------
FINAL SINGLE POINT ENERGY     -1339.867436122971
-------------------------   --------------------


                            ***************************************
                            *     ORCA property calculations      *
                            ***************************************

                                    ---------------------
                                    Active property flags
                                    ---------------------
   (+) Dipole Moment


------------------------------------------------------------------------------
                       ORCA ELECTRIC PROPERTIES CALCULATION
------------------------------------------------------------------------------

Dipole Moment Calculation                       ... on
Quadrupole Moment Calculation                   ... off
Polarizability Calculation                      ... off
GBWName                                         ... config_2992.gbw
Electron density file                           ... config_2992.scfp
The origin for moment calculation is the CENTER OF MASS  = (98.203272, -4.406037 156.595899)

-------------
DIPOLE MOMENT
-------------
                                X             Y             Z
Electronic contribution:     22.56680       7.38025       9.40666
Nuclear contribution   :    -22.91534      -7.73190      -9.63634
                        -----------------------------------------
Total Dipole Moment    :     -0.34854      -0.35165      -0.22968
                        -----------------------------------------
Magnitude (a.u.)       :      0.54579
Magnitude (Debye)      :      1.38729



--------------------
Rotational spectrum 
--------------------
 
Rotational constants in cm-1:     0.018425     0.007881     0.006548 
Rotational constants in MHz :   552.373506   236.275698   196.312409 

 Dipole components along the rotational axes: 
x,y,z [a.u.] :    -0.081955    -0.437729    -0.315536 
x,y,z [Debye]:    -0.208313    -1.112619    -0.802028 

 

Timings for individual modules:

Sum of individual times         ...       28.287 sec (=   0.471 min)
GTO integral calculation        ...        0.766 sec (=   0.013 min)   2.7 %
SCF iterations                  ...       27.522 sec (=   0.459 min)  97.3 %
                             ****ORCA TERMINATED NORMALLY****
TOTAL RUN TIME: 0 days 0 hours 0 minutes 29 seconds 167 msec
