
                                 *****************
                                 * O   R   C   A *
                                 *****************

           --- An Ab Initio, DFT and Semiempirical electronic structure package ---

                  #######################################################
                  #                        -***-                        #
                  #          Department of theory and spectroscopy      #
                  #               Directorship: Frank Neese             #
                  #        Max Planck Institute fuer Kohlenforschung    #
                  #                Kaiser Wilhelm Platz 1               #
                  #                 D-45470 Muelheim/Ruhr               #
                  #                      Germany                        #
                  #                                                     #
                  #                  All rights reserved                #
                  #                        -***-                        #
                  #######################################################


                         Program Version 4.2.1 -  RELEASE  -


 With contributions from (in alphabetic order):
   Daniel Aravena         : Magnetic Suceptibility
   Michael Atanasov       : Ab Initio Ligand Field Theory (pilot matlab implementation)
   Alexander A. Auer      : GIAO ZORA, VPT2
   Ute Becker             : Parallelization
   Giovanni Bistoni       : ED, misc. LED, open-shell LED, HFLD
   Martin Brehm           : Molecular dynamics
   Dmytro Bykov           : SCF Hessian
   Vijay G. Chilkuri      : MRCI spin determinant printing, contributions to CSF-ICE
   Dipayan Datta          : RHF DLPNO-CCSD density
   Achintya Kumar Dutta   : EOM-CC, STEOM-CC
   Dmitry Ganyushin       : Spin-Orbit,Spin-Spin,Magnetic field MRCI
   Miquel Garcia          : C-PCM Hessian, Gaussian charge scheme
   Yang Guo               : DLPNO-NEVPT2, CIM, IAO-localization
   Andreas Hansen         : Spin unrestricted coupled pair/coupled cluster methods
   Benjamin Helmich-Paris : CASSCF linear response (MC-RPA)
   Lee Huntington         : MR-EOM, pCC
   Robert Izsak           : Overlap fitted RIJCOSX, COSX-SCS-MP3, EOM
   Christian Kollmar      : KDIIS, OOCD, Brueckner-CCSD(T), CCSD density
   Simone Kossmann        : Meta GGA functionals, TD-DFT gradient, OOMP2, MP2 Hessian
   Martin Krupicka        : AUTO-CI
   Lucas Lang             : DCDCAS
   Dagmar Lenk            : GEPOL surface, SMD
   Dimitrios Liakos       : Extrapolation schemes; Compound Job, initial MDCI parallelization
   Dimitrios Manganas     : Further ROCIS development; embedding schemes
   Dimitrios Pantazis     : SARC Basis sets
   Taras Petrenko         : DFT Hessian,TD-DFT gradient, ASA, ECA, R-Raman, ABS, FL, XAS/XES, NRVS
   Peter Pinski           : DLPNO-MP2, DLPNO-MP2 Gradient
   Christoph Reimann      : Effective Core Potentials
   Marius Retegan         : Local ZFS, SOC
   Christoph Riplinger    : Optimizer, TS searches, QM/MM, DLPNO-CCSD(T), (RO)-DLPNO pert. Triples
   Tobias Risthaus        : Range-separated hybrids, TD-DFT gradient, RPA, STAB
   Michael Roemelt        : Original ROCIS implementation
   Masaaki Saitow         : Open-shell DLPNO-CCSD energy and density
   Barbara Sandhoefer     : DKH picture change effects
   Avijit Sen             : IP-ROCIS
   Kantharuban Sivalingam : CASSCF convergence, NEVPT2, FIC-MRCI
   Bernardo de Souza      : ESD, SOC TD-DFT
   Georgi Stoychev        : AutoAux, RI-MP2 NMR
   Willem Van den Heuvel  : Paramagnetic NMR
   Boris Wezisla          : Elementary symmetry handling
   Frank Wennmohs         : Technical directorship


 We gratefully acknowledge several colleagues who have allowed us to
 interface, adapt or use parts of their codes:
   Stefan Grimme, W. Hujo, H. Kruse,             : VdW corrections, initial TS optimization,
                  C. Bannwarth                     DFT functionals, gCP, sTDA/sTD-DF
   Ed Valeev, F. Pavosevic, A. Kumar             : LibInt (2-el integral package), F12 methods
   Garnet Chan, S. Sharma, J. Yang, R. Olivares  : DMRG
   Ulf Ekstrom                                   : XCFun DFT Library
   Mihaly Kallay                                 : mrcc  (arbitrary order and MRCC methods)
   Andreas Klamt, Michael Diedenhofen            : otool_cosmo (COSMO solvation model)
   Jiri Pittner, Ondrej Demel                    : Mk-CCSD
   Frank Weinhold                                : gennbo (NPA and NBO analysis)
   Christopher J. Cramer and Donald G. Truhlar   : smd solvation model
   Lars Goerigk                                  : TD-DFT with DH, B97 family of functionals
   V. Asgeirsson, H. Jonsson                     : NEB implementation
   FAccTs GmbH                                   : IRC, NEB, NEB-TS, Multilevel, MM, QM/MM, CI optimization
   S Lehtola, MJT Oliveira, MAL Marques          : LibXC Library


 Your calculation uses the libint2 library for the computation of 2-el integrals
 For citations please refer to: http://libint.valeyev.net

 Your ORCA version has been built with support for libXC version: 4.2.3
 For citations please refer to: https://tddft.org/programs/libxc/

 This ORCA versions uses:
   CBLAS   interface :  Fast vector & matrix operations
   LAPACKE interface :  Fast linear algebra routines
   SCALAPACK package :  Parallel linear algebra routines


Your calculation utilizes the atom-pairwise dispersion correction
with the zero-damping scheme (D30)
Cite in your paper:
S.Grimme, J.Antony, S.Ehrlich and H.Krieg, J.Chem.Phys., 132, (2010), 154104 
   

XCFun DFT library Copyright 2009-2010 Ulf Ekstrom and contributors.
See http://admol.org/xcfun for more information. This is free soft-
ware; see the source code for copying conditions. There is ABSOLUTELY
NO WARRANTY; not even for MERCHANTABILITY or FITNESS FOR A PARTICULAR
PURPOSE. For details see the documentation. Scientific users of this 
library should cite U. Ekstrom, L. Visscher, R. Bast, A. J. Thorvald-
sen and K. Ruud; J.Chem.Theor.Comp. 2010, DOI: 10.1021/ct100117s
XCFun Version 0.99 
----- Orbital basis set information -----
Your calculation utilizes the basis: def2-SVP
   F. Weigend and R. Ahlrichs, Phys. Chem. Chem. Phys. 7, 3297 (2005).

================================================================================
                                        WARNINGS
                       Please study these warnings very carefully!
================================================================================


INFO   : the flag for use of LIBINT has been found!

================================================================================
                                       INPUT FILE
================================================================================
NAME = config_7825.inp
|  1> ! wB97X-D3 SP def2-SVP
|  2> %pal
|  3> nprocs 16
|  4> end
|  5> 
|  6> * xyz 0 1
|  7> S 	 -44.1489 	 49.7444 	 103.749 	 
|  8> C 	 -44.7605 	 50.6808 	 105.027 	 
|  9> C 	 -44.2312 	 50.3304 	 106.195 	 
| 10> C 	 -43.2121 	 49.3946 	 106.023 	 
| 11> C 	 -43.0497 	 48.8472 	 104.774 	 
| 12> H 	 -42.5736 	 49.0975 	 106.862 	 
| 13> C 	 -44.6793 	 50.8151 	 107.545 	 
| 14> H 	 -45.2512 	 51.7598 	 107.267 	 
| 15> H 	 -43.7887 	 51.1112 	 108.192 	 
| 16> C 	 -45.6204 	 49.9767 	 108.322 	 
| 17> H 	 -45.101 	 49.0262 	 108.464 	 
| 18> H 	 -45.7608 	 50.4643 	 109.283 	 
| 19> C 	 -46.9462 	 49.6069 	 107.722 	 
| 20> H 	 -47.616 	 50.3967 	 107.57 	 
| 21> H 	 -46.7807 	 49.1057 	 106.725 	 
| 22> H 	 -47.3273 	 48.8146 	 108.421 	 
| 23> S 	 -42.9572 	 46.193 	 103.736 	 
| 24> C 	 -41.4528 	 45.5472 	 103.379 	 
| 25> C 	 -40.4334 	 46.4622 	 103.519 	 
| 26> C 	 -40.858 	 47.689 	 104.129 	 
| 27> C 	 -42.1833 	 47.7392 	 104.247 	 
| 28> H 	 -39.3754 	 46.0913 	 103.276 	 
| 29> C 	 -39.7656 	 48.7613 	 104.302 	 
| 30> H 	 -38.8187 	 48.2823 	 104.312 	 
| 31> H 	 -39.8045 	 49.3649 	 105.209 	 
| 32> C 	 -39.6814 	 49.7758 	 103.177 	 
| 33> H 	 -40.7184 	 50.1118 	 102.878 	 
| 34> H 	 -39.3082 	 49.1801 	 102.319 	 
| 35> C 	 -38.7937 	 51.0492 	 103.595 	 
| 36> H 	 -39.3637 	 51.7234 	 104.136 	 
| 37> H 	 -38.5487 	 51.5895 	 102.719 	 
| 38> H 	 -37.8754 	 50.8264 	 104.177 	 
| 39> H 	 -45.4842 	 51.5107 	 104.869 	 
| 40> H 	 -41.3364 	 44.5297 	 103.039 	 
| 41> *
| 42> 
| 43>                          ****END OF INPUT****
================================================================================

                       ****************************
                       * Single Point Calculation *
                       ****************************

---------------------------------
CARTESIAN COORDINATES (ANGSTROEM)
---------------------------------
  S    -44.148900   49.744400  103.749000
  C    -44.760500   50.680800  105.027000
  C    -44.231200   50.330400  106.195000
  C    -43.212100   49.394600  106.023000
  C    -43.049700   48.847200  104.774000
  H    -42.573600   49.097500  106.862000
  C    -44.679300   50.815100  107.545000
  H    -45.251200   51.759800  107.267000
  H    -43.788700   51.111200  108.192000
  C    -45.620400   49.976700  108.322000
  H    -45.101000   49.026200  108.464000
  H    -45.760800   50.464300  109.283000
  C    -46.946200   49.606900  107.722000
  H    -47.616000   50.396700  107.570000
  H    -46.780700   49.105700  106.725000
  H    -47.327300   48.814600  108.421000
  S    -42.957200   46.193000  103.736000
  C    -41.452800   45.547200  103.379000
  C    -40.433400   46.462200  103.519000
  C    -40.858000   47.689000  104.129000
  C    -42.183300   47.739200  104.247000
  H    -39.375400   46.091300  103.276000
  C    -39.765600   48.761300  104.302000
  H    -38.818700   48.282300  104.312000
  H    -39.804500   49.364900  105.209000
  C    -39.681400   49.775800  103.177000
  H    -40.718400   50.111800  102.878000
  H    -39.308200   49.180100  102.319000
  C    -38.793700   51.049200  103.595000
  H    -39.363700   51.723400  104.136000
  H    -38.548700   51.589500  102.719000
  H    -37.875400   50.826400  104.177000
  H    -45.484200   51.510700  104.869000
  H    -41.336400   44.529700  103.039000

----------------------------
CARTESIAN COORDINATES (A.U.)
----------------------------
  NO LB      ZA    FRAG     MASS         X           Y           Z
   0 S    16.0000    0    32.060  -83.429330   94.003293  196.057197
   1 C     6.0000    0    12.011  -84.585087   95.772832  198.472267
   2 C     6.0000    0    12.011  -83.584855   95.110672  200.679467
   3 C     6.0000    0    12.011  -81.659035   93.342266  200.354434
   4 C     6.0000    0    12.011  -81.352143   92.307830  197.994166
   5 H     1.0000    0     1.008  -80.452445   92.780829  201.939914
   6 C     6.0000    0    12.011  -84.431641   96.026622  203.230597
   7 H     1.0000    0     1.008  -85.512375   97.811847  202.705253
   8 H     1.0000    0     1.008  -82.748651   96.586170  204.453250
   9 C     6.0000    0    12.011  -86.210062   94.442276  204.698914
  10 H     1.0000    0     1.008  -85.228538   92.646091  204.967255
  11 H     1.0000    0     1.008  -86.475380   95.363707  206.514941
  12 C     6.0000    0    12.011  -88.715461   93.743455  203.565079
  13 H     1.0000    0     1.008  -89.981200   95.235961  203.277840
  14 H     1.0000    0     1.008  -88.402711   92.796325  201.681022
  15 H     1.0000    0     1.008  -89.435636   92.246225  204.885997
  16 S    16.0000    0    32.060  -81.177343   87.292119  196.032630
  17 C     6.0000    0    12.011  -78.334439   86.071734  195.357998
  18 C     6.0000    0    12.011  -76.408053   87.800834  195.622560
  19 C     6.0000    0    12.011  -77.210430   90.119150  196.775293
  20 C     6.0000    0    12.011  -79.714884   90.214014  196.998280
  21 H     1.0000    0     1.008  -74.408722   87.099934  195.163356
  22 C     6.0000    0    12.011  -75.146094   92.145503  197.102215
  23 H     1.0000    0     1.008  -73.356712   91.240324  197.121112
  24 H     1.0000    0     1.008  -75.219604   93.286142  198.816197
  25 C     6.0000    0    12.011  -74.986979   94.062630  194.976273
  26 H     1.0000    0     1.008  -76.946625   94.697578  194.411245
  27 H     1.0000    0     1.008  -74.281733   92.936920  193.354888
  28 C     6.0000    0    12.011  -73.309469   96.469007  195.766179
  29 H     1.0000    0     1.008  -74.386613   97.743061  196.788521
  30 H     1.0000    0     1.008  -72.846486   97.490026  194.110779
  31 H     1.0000    0     1.008  -71.574133   96.047976  196.865999
  32 H     1.0000    0     1.008  -85.952681   97.341116  198.173690
  33 H     1.0000    0     1.008  -78.114475   84.148938  194.715491

--------------------------------
INTERNAL COORDINATES (ANGSTROEM)
--------------------------------
 S      0   0   0     0.000000000000     0.00000000     0.00000000
 C      1   0   0     1.698288408958     0.00000000     0.00000000
 C      2   1   0     1.329346700451   111.86737420     0.00000000
 C      3   2   1     1.394227545991   111.07334910     6.69648301
 C      4   3   2     1.373324987030   117.78590885   350.64742095
 H      4   3   2     1.095386534516   120.90542367   171.51944108
 C      3   2   1     1.502740064016   125.84364079   188.93592540
 H      7   3   2     1.138776404743   101.42105571   340.51765581
 H      7   3   2     1.139935335885   111.14330466   225.48334656
 C      7   3   2     1.480646065068   118.57602670    96.22274492
 H     10   7   3     1.092424189589   104.99221526    59.59101862
 H     10   7   3     1.086732220927   106.98429835   176.10670799
 C     10   7   3     1.501498478188   119.40530878   302.40404444
 H     13  10   7     1.046670951159   115.92780972   293.42069974
 H     13  10   7     1.128096046443   109.45372608    55.18490602
 H     13  10   7     1.123199670584   102.98183074   168.33366981
 S      5   4   3     2.851451891581   134.90456701   234.45214897
 C     17   5   4     1.675627046810   117.73798433   258.49846109
 C     18  17   5     1.376953652089   112.76226142   353.95588630
 C     19  18  17     1.434372127448   113.10611443     8.93814371
 C     20  19  18     1.331489440439   111.38154862   350.98620509
 H     19  18  17     1.147161632029   116.51308460   180.82450055
 C     20  19  18     1.540485004796   115.67033539   180.56489436
 H     23  20  19     1.061207147545   108.63940899   336.74304657
 H     23  20  19     1.090181255572   116.97020278   217.00792093
 C     23  20  19     1.517209573526   114.93087569    94.03643432
 H     26  23  20     1.130338887237   110.12023109    43.42912106
 H     26  23  20     1.109189221909   103.48168865   291.30403381
 C     26  23  20     1.607570480570   111.56198052   165.70634247
 H     29  26  23     1.035435483263   110.34362772   277.27007739
 H     29  26  23     1.057981611371   108.48831681   164.94303002
 H     29  26  23     1.109792201270   115.73777047    40.52820014
 H      2   1   3     1.112402669900   122.59906351   177.57532728
 H     18  17   5     1.079099258641   121.82867954   176.29920217

---------------------------
INTERNAL COORDINATES (A.U.)
---------------------------
 S      0   0   0     0.000000000000     0.00000000     0.00000000
 C      1   0   0     3.209299989343     0.00000000     0.00000000
 C      2   1   0     2.512101200884   111.86737420     0.00000000
 C      3   2   1     2.634708230292   111.07334910     6.69648301
 C      4   3   2     2.595208118357   117.78590885   350.64742095
 H      4   3   2     2.069980561021   120.90542367   171.51944108
 C      3   2   1     2.839767171462   125.84364079   188.93592540
 H      7   3   2     2.151975532736   101.42105571   340.51765581
 H      7   3   2     2.154165595203   111.14330466   225.48334656
 C      7   3   2     2.798015564246   118.57602670    96.22274492
 H     10   7   3     2.064382540395   104.99221526    59.59101862
 H     10   7   3     2.053626278459   106.98429835   176.10670799
 C     10   7   3     2.837420914274   119.40530878   302.40404444
 H     13  10   7     1.977921450021   115.92780972   293.42069974
 H     13  10   7     2.131792580536   109.45372608    55.18490602
 H     13  10   7     2.122539771114   102.98183074   168.33366981
 S      5   4   3     5.388463159140   134.90456701   234.45214897
 C     17   5   4     3.166476221061   117.73798433   258.49846109
 C     18  17   5     2.602065301550   112.76226142   353.95588630
 C     19  18  17     2.710570495007   113.10611443     8.93814371
 C     20  19  18     2.516150392637   111.38154862   350.98620509
 H     19  18  17     2.167821315877   116.51308460   180.82450055
 C     20  19  18     2.911094772476   115.67033539   180.56489436
 H     23  20  19     2.005390880219   108.63940899   336.74304657
 H     23  20  19     2.060144009365   116.97020278   217.00792093
 C     23  20  19     2.867110581728   114.93087569    94.03643432
 H     26  23  20     2.136030935399   110.12023109    43.42912106
 H     26  23  20     2.096063860106   103.48168865   291.30403381
 C     26  23  20     3.037867949253   111.56198052   165.70634247
 H     29  26  23     1.956689492711   110.34362772   277.27007739
 H     29  26  23     1.999295500217   108.48831681   164.94303002
 H     29  26  23     2.097203325962   115.73777047    40.52820014
 H      2   1   3     2.102136396753   122.59906351   177.57532728
 H     18  17   5     2.039202070149   121.82867954   176.29920217

---------------------
BASIS SET INFORMATION
---------------------
There are 3 groups of distinct atoms

 Group   1 Type S   : 10s7p1d contracted to 4s3p1d pattern {5311/511/1}
 Group   2 Type C   : 7s4p1d contracted to 3s2p1d pattern {511/31/1}
 Group   3 Type H   : 4s1p contracted to 2s1p pattern {31/1}

Atom   0S    basis set group =>   1
Atom   1C    basis set group =>   2
Atom   2C    basis set group =>   2
Atom   3C    basis set group =>   2
Atom   4C    basis set group =>   2
Atom   5H    basis set group =>   3
Atom   6C    basis set group =>   2
Atom   7H    basis set group =>   3
Atom   8H    basis set group =>   3
Atom   9C    basis set group =>   2
Atom  10H    basis set group =>   3
Atom  11H    basis set group =>   3
Atom  12C    basis set group =>   2
Atom  13H    basis set group =>   3
Atom  14H    basis set group =>   3
Atom  15H    basis set group =>   3
Atom  16S    basis set group =>   1
Atom  17C    basis set group =>   2
Atom  18C    basis set group =>   2
Atom  19C    basis set group =>   2
Atom  20C    basis set group =>   2
Atom  21H    basis set group =>   3
Atom  22C    basis set group =>   2
Atom  23H    basis set group =>   3
Atom  24H    basis set group =>   3
Atom  25C    basis set group =>   2
Atom  26H    basis set group =>   3
Atom  27H    basis set group =>   3
Atom  28C    basis set group =>   2
Atom  29H    basis set group =>   3
Atom  30H    basis set group =>   3
Atom  31H    basis set group =>   3
Atom  32H    basis set group =>   3
Atom  33H    basis set group =>   3


           ************************************************************
           *        Program running with 16 parallel MPI-processes    *
           *              working on a common directory               *
           ************************************************************
------------------------------------------------------------------------------
                           ORCA GTO INTEGRAL CALCULATION
------------------------------------------------------------------------------

                         BASIS SET STATISTICS AND STARTUP INFO

 # of primitive gaussian shells          ...  294
 # of primitive gaussian functions       ...  534
 # of contracted shells                  ...  154
 # of contracted basis functions         ...  322
 Highest angular momentum                ...    2
 Maximum contraction depth               ...    5
 Integral package used                   ... LIBINT
 Integral threshhold            Thresh   ...  1.000e-10
 Primitive cut-off              TCut     ...  1.000e-11


------------------------------ INTEGRAL EVALUATION ----------------------------


 * One electron integrals 
 Pre-screening matrix                    ... done
 Shell pair data                         ... done (   0.003 sec)



           ************************************************************
           *        Program running with 16 parallel MPI-processes    *
           *              working on a common directory               *
           ************************************************************
-------------------------------------------------------------------------------
                                 ORCA SCF
-------------------------------------------------------------------------------

------------
SCF SETTINGS
------------
Hamiltonian:
 Density Functional     Method          .... DFT(GTOs)
 Exchange Functional    Exchange        .... WB97X-D3
 Correlation Functional Correlation     .... WB97X-D3
 Gradients option       PostSCFGGA      .... off
 Hybrid DFT is turned on
   Fraction HF Exchange ScalHFX         ....  0.195728
   Scaling of DF-GGA-X  ScalDFX         ....  0.000000
   Scaling of DF-GGA-C  ScalDFC         ....  1.000000
   Scaling of DF-LDA-C  ScalLDAC        ....  1.000000
   Perturbative correction              ....  0.000000
   Density functional embedding theory  .... OFF
 Long-range corrected/Screened/Range-Separated Hybrid DFT is turned on
   Amount of maximum screened exact exchange              ....  0.804272
   Range separation parameter mu (erf(mu*r12)/r12)        ....  0.250000


General Settings:
 Integral files         IntName         .... config_7825
 Hartree-Fock type      HFTyp           .... RHF
 Total Charge           Charge          ....    0
 Multiplicity           Mult            ....    1
 Number of Electrons    NEL             ....  134
 Basis Dimension        Dim             ....  322
 Nuclear Repulsion      ENuc            ....   1285.6940246172 Eh

Convergence Acceleration:
 DIIS                   CNVDIIS         .... on
   Start iteration      DIISMaxIt       ....    12
   Startup error        DIISStart       ....  0.200000
   # of expansion vecs  DIISMaxEq       ....     5
   Bias factor          DIISBfac        ....   1.050
   Max. coefficient     DIISMaxC        ....  10.000
 Newton-Raphson         CNVNR           .... off
 SOSCF                  CNVSOSCF        .... on
   Start iteration      SOSCFMaxIt      ....   150
   Startup grad/error   SOSCFStart      ....  0.003300
 Level Shifting         CNVShift        .... on
   Level shift para.    LevelShift      ....    0.2500
   Turn off err/grad.   ShiftErr        ....    0.0010
 Zerner damping         CNVZerner       .... off
 Static damping         CNVDamp         .... on
   Fraction old density DampFac         ....    0.7000
   Max. Damping (<1)    DampMax         ....    0.9800
   Min. Damping (>=0)   DampMin         ....    0.0000
   Turn off err/grad.   DampErr         ....    0.1000
 Fernandez-Rico         CNVRico         .... off

SCF Procedure:
 Maximum # iterations   MaxIter         ....   125
 SCF integral mode      SCFMode         .... Direct
   Integral package                     .... LIBINT
 Reset frequency        DirectResetFreq ....    20
 Integral Threshold     Thresh          ....  1.000e-10 Eh
 Primitive CutOff       TCut            ....  1.000e-11 Eh

Convergence Tolerance:
 Convergence Check Mode ConvCheckMode   .... Total+1el-Energy
 Convergence forced     ConvForced      .... 0
 Energy Change          TolE            ....  1.000e-06 Eh
 1-El. energy change                    ....  1.000e-03 Eh
 Orbital Gradient       TolG            ....  5.000e-05
 Orbital Rotation angle TolX            ....  5.000e-05
 DIIS Error             TolErr          ....  1.000e-06


Diagonalization of the overlap matrix:
Smallest eigenvalue                        ... 6.001e-04
Time for diagonalization                   ...    0.017 sec
Threshold for overlap eigenvalues          ... 1.000e-08
Number of eigenvalues below threshold      ... 0
Time for construction of square roots      ...    0.028 sec
Total time needed                          ...    0.046 sec

-------------------
DFT GRID GENERATION
-------------------

General Integration Accuracy     IntAcc      ...  4.340
Radial Grid Type                 RadialGrid  ... Gauss-Chebyshev
Angular Grid (max. acc.)         AngularGrid ... Lebedev-110
Angular grid pruning method      GridPruning ... 3 (G Style)
Weight generation scheme         WeightScheme... Becke
Basis function cutoff            BFCut       ...    1.0000e-10
Integration weight cutoff        WCut        ...    1.0000e-14
Grids for H and He will be reduced by one unit

# of grid points (after initial pruning)     ...  41088 (   0.0 sec)
# of grid points (after weights+screening)   ...  36999 (   0.0 sec)
nearest neighbour list constructed           ...    0.0 sec
Grid point re-assignment to atoms done       ...    0.0 sec
Grid point division into batches done        ...    0.0 sec
Reduced shell lists constructed in    0.1 sec

Total number of grid points                  ...    36999
Total number of batches                      ...      596
Average number of points per batch           ...       62
Average number of grid points per atom       ...     1088
Average number of shells per batch           ...    82.08 (53.30%)
Average number of basis functions per batch  ...   161.15 (50.05%)
Average number of large shells per batch     ...    54.08 (65.89%)
Average number of large basis fcns per batch ...   109.82 (68.15%)
Maximum spatial batch extension              ...  13.76, 15.40, 15.03 au
Average spatial batch extension              ...   0.18,  0.19,  0.18 au

Time for grid setup =    0.168 sec

------------------------------
INITIAL GUESS: MODEL POTENTIAL
------------------------------
Loading Hartree-Fock densities                     ... done
Calculating cut-offs                               ... done
Setting up the integral package                    ... done
Initializing the effective Hamiltonian             ... done
Starting the Coulomb interaction                   ... done (   0.0 sec)
Reading the grid                                   ... done
Mapping shells                                     ... done
Starting the XC term evaluation                    ... done (   0.0 sec)
  promolecular density results
     # of electrons  =    133.982204189
     EX              =   -126.764080445
     EC              =     -4.622948778
     EX+EC           =   -131.387029223
Transforming the Hamiltonian                       ... done (   0.0 sec)
Diagonalizing the Hamiltonian                      ... done (   0.0 sec)
Back transforming the eigenvectors                 ... done (   0.0 sec)
Now organizing SCF variables                       ... done
                      ------------------
                      INITIAL GUESS DONE (   0.4 sec)
                      ------------------
--------------
SCF ITERATIONS
--------------
ITER       Energy         Delta-E        Max-DP      RMS-DP      [F,P]     Damp
               ***  Starting incremental Fock matrix formation  ***
  0  -1339.4001011088   0.000000000000 0.06484139  0.00160498  0.1600715 0.7000
  1  -1339.5955565229  -0.195455414091 0.04374836  0.00117265  0.0962994 0.7000
                               ***Turning on DIIS***
  2  -1339.6902126569  -0.094656134056 0.08830014  0.00221919  0.0505422 0.0000
  3  -1339.8329466588  -0.142734001873 0.04209062  0.00097672  0.0369416 0.0000
  4  -1339.8634839435  -0.030537284711 0.00807881  0.00020948  0.0079159 0.0000
                      *** Initiating the SOSCF procedure ***
                           *** Shutting down DIIS ***
                      *** Re-Reading the Fockian *** 
                      *** Removing any level shift *** 
ITER      Energy       Delta-E        Grad      Rot      Max-DP    RMS-DP
  5  -1339.86443874  -0.0009548004  0.001565  0.001565  0.003141  0.000101
               *** Restarting incremental Fock matrix formation ***
  6  -1339.86461572  -0.0001769774  0.001224  0.003265  0.002472  0.000063
  7  -1339.86466787  -0.0000521519  0.000854  0.004589  0.003185  0.000060
  8  -1339.86468175  -0.0000138764  0.000315  0.000749  0.000722  0.000020
  9  -1339.86468577  -0.0000040190  0.000136  0.000302  0.000327  0.000008
 10  -1339.86468621  -0.0000004450  0.000061  0.000223  0.000142  0.000003
                 **** Energy Check signals convergence ****
              ***Rediagonalizing the Fockian in SOSCF/NRSCF***

               *****************************************************
               *                     SUCCESS                       *
               *           SCF CONVERGED AFTER  11 CYCLES          *
               *****************************************************

Setting up the final grid:

General Integration Accuracy     IntAcc      ...  4.670
Radial Grid Type                 RadialGrid  ... Gauss-Chebyshev
Angular Grid (max. acc.)         AngularGrid ... Lebedev-302
Angular grid pruning method      GridPruning ... 3 (G Style)
Weight generation scheme         WeightScheme... Becke
Basis function cutoff            BFCut       ...    1.0000e-10
Integration weight cutoff        WCut        ...    1.0000e-14
Grids for H and He will be reduced by one unit

# of grid points (after initial pruning)     ... 161752 (   0.0 sec)
# of grid points (after weights+screening)   ... 142864 (   0.1 sec)
nearest neighbour list constructed           ...    0.0 sec
Grid point re-assignment to atoms done       ...    0.0 sec
Grid point division into batches done        ...    0.5 sec
Reduced shell lists constructed in    0.6 sec

Total number of grid points                  ...   142864
Total number of batches                      ...     2251
Average number of points per batch           ...       63
Average number of grid points per atom       ...     4202
Average number of shells per batch           ...    77.35 (50.23%)
Average number of basis functions per batch  ...   151.03 (46.90%)
Average number of large shells per batch     ...    49.03 (63.38%)
Average number of large basis fcns per batch ...    99.20 (65.68%)
Maximum spatial batch extension              ...  11.62, 14.36, 13.24 au
Average spatial batch extension              ...   0.12,  0.12,  0.12 au

Final grid set up in    1.0 sec
Final integration                            ... done (   0.4 sec)
Change in XC energy                          ...     0.007971526
Integrated number of electrons               ...   134.000124521
Previous integrated no of electrons          ...   133.995554213

----------------
TOTAL SCF ENERGY
----------------

Total Energy       :        -1339.85671485 Eh          -36459.35477 eV

Components:
Nuclear Repulsion  :         1285.69402462 Eh           34985.51304 eV
Electronic Energy  :        -2625.55073947 Eh          -71444.86781 eV
One Electron Energy:        -4388.03743930 Eh         -119404.56913 eV
Two Electron Energy:         1762.48669983 Eh           47959.70133 eV

Virial components:
Potential Energy   :        -2671.72878044 Eh          -72701.43619 eV
Kinetic Energy     :         1331.87206559 Eh           36242.08142 eV
Virial Ratio       :            2.00599506


DFT components:
N(Alpha)           :       67.000062260254 electrons
N(Beta)            :       67.000062260254 electrons
N(Total)           :      134.000124520509 electrons
E(XC)              :      -94.309347372180 Eh       
DFET-embed. en.    :        0.000000000000 Eh       

---------------
SCF CONVERGENCE
---------------

  Last Energy change         ...   -1.6490e-07  Tolerance :   1.0000e-06
  Last MAX-Density change    ...    3.4659e-05  Tolerance :   1.0000e-05
  Last RMS-Density change    ...    5.9391e-07  Tolerance :   1.0000e-06
  Last Orbital Gradient      ...    4.7133e-06  Tolerance :   5.0000e-05
  Last Orbital Rotation      ...    1.5475e-05  Tolerance :   5.0000e-05

             **** THE GBW FILE WAS UPDATED (config_7825.gbw) ****
             **** DENSITY FILE WAS UPDATED (config_7825.scfp) ****
             **** ENERGY FILE WAS UPDATED (config_7825.en.tmp) ****
             **** THE GBW FILE WAS UPDATED (config_7825.gbw) ****
             **** DENSITY FILE WAS UPDATED (config_7825.scfp) ****
----------------
ORBITAL ENERGIES
----------------

  NO   OCC          E(Eh)            E(eV) 
   0   2.0000     -88.965081     -2420.8629 
   1   2.0000     -88.960770     -2420.7456 
   2   2.0000     -10.329647      -281.0840 
   3   2.0000     -10.329252      -281.0732 
   4   2.0000     -10.312997      -280.6309 
   5   2.0000     -10.308284      -280.5027 
   6   2.0000     -10.303427      -280.3705 
   7   2.0000     -10.296431      -280.1801 
   8   2.0000     -10.294669      -280.1322 
   9   2.0000     -10.290910      -280.0299 
  10   2.0000     -10.289024      -279.9786 
  11   2.0000     -10.287657      -279.9414 
  12   2.0000     -10.287286      -279.9313 
  13   2.0000     -10.279290      -279.7137 
  14   2.0000     -10.275519      -279.6111 
  15   2.0000     -10.275382      -279.6074 
  16   2.0000      -8.080820      -219.8903 
  17   2.0000      -8.076712      -219.7785 
  18   2.0000      -6.039224      -164.3356 
  19   2.0000      -6.035241      -164.2273 
  20   2.0000      -6.035058      -164.2223 
  21   2.0000      -6.031567      -164.1273 
  22   2.0000      -6.030912      -164.1095 
  23   2.0000      -6.027687      -164.0217 
  24   2.0000      -1.014898       -27.6168 
  25   2.0000      -0.998267       -27.1642 
  26   2.0000      -0.919158       -25.0116 
  27   2.0000      -0.907797       -24.7024 
  28   2.0000      -0.869508       -23.6605 
  29   2.0000      -0.851179       -23.1618 
  30   2.0000      -0.845398       -23.0044 
  31   2.0000      -0.813381       -22.1332 
  32   2.0000      -0.788138       -21.4463 
  33   2.0000      -0.780007       -21.2251 
  34   2.0000      -0.706132       -19.2148 
  35   2.0000      -0.692395       -18.8410 
  36   2.0000      -0.685893       -18.6641 
  37   2.0000      -0.659922       -17.9574 
  38   2.0000      -0.639514       -17.4021 
  39   2.0000      -0.624426       -16.9915 
  40   2.0000      -0.602245       -16.3879 
  41   2.0000      -0.572895       -15.5893 
  42   2.0000      -0.558664       -15.2020 
  43   2.0000      -0.551593       -15.0096 
  44   2.0000      -0.544691       -14.8218 
  45   2.0000      -0.522138       -14.2081 
  46   2.0000      -0.515918       -14.0388 
  47   2.0000      -0.507882       -13.8202 
  48   2.0000      -0.501194       -13.6382 
  49   2.0000      -0.498049       -13.5526 
  50   2.0000      -0.489941       -13.3320 
  51   2.0000      -0.483235       -13.1495 
  52   2.0000      -0.475004       -12.9255 
  53   2.0000      -0.473238       -12.8775 
  54   2.0000      -0.461748       -12.5648 
  55   2.0000      -0.440840       -11.9959 
  56   2.0000      -0.437881       -11.9153 
  57   2.0000      -0.435722       -11.8566 
  58   2.0000      -0.433706       -11.8017 
  59   2.0000      -0.422809       -11.5052 
  60   2.0000      -0.415191       -11.2979 
  61   2.0000      -0.414131       -11.2691 
  62   2.0000      -0.409643       -11.1469 
  63   2.0000      -0.343430        -9.3452 
  64   2.0000      -0.335266        -9.1230 
  65   2.0000      -0.327677        -8.9165 
  66   2.0000      -0.305627        -8.3165 
  67   0.0000       0.047132         1.2825 
  68   0.0000       0.061203         1.6654 
  69   0.0000       0.118931         3.2363 
  70   0.0000       0.125610         3.4180 
  71   0.0000       0.133469         3.6319 
  72   0.0000       0.142543         3.8788 
  73   0.0000       0.151435         4.1208 
  74   0.0000       0.154979         4.2172 
  75   0.0000       0.160561         4.3691 
  76   0.0000       0.166868         4.5407 
  77   0.0000       0.183003         4.9798 
  78   0.0000       0.188572         5.1313 
  79   0.0000       0.191688         5.2161 
  80   0.0000       0.197547         5.3755 
  81   0.0000       0.208487         5.6732 
  82   0.0000       0.215541         5.8652 
  83   0.0000       0.219614         5.9760 
  84   0.0000       0.222521         6.0551 
  85   0.0000       0.228536         6.2188 
  86   0.0000       0.230694         6.2775 
  87   0.0000       0.239357         6.5132 
  88   0.0000       0.245551         6.6818 
  89   0.0000       0.251679         6.8485 
  90   0.0000       0.254794         6.9333 
  91   0.0000       0.255971         6.9653 
  92   0.0000       0.264047         7.1851 
  93   0.0000       0.290497         7.9048 
  94   0.0000       0.307308         8.3623 
  95   0.0000       0.315235         8.5780 
  96   0.0000       0.321400         8.7457 
  97   0.0000       0.335753         9.1363 
  98   0.0000       0.363508         9.8916 
  99   0.0000       0.379783        10.3344 
 100   0.0000       0.394372        10.7314 
 101   0.0000       0.408718        11.1218 
 102   0.0000       0.415975        11.3192 
 103   0.0000       0.424564        11.5530 
 104   0.0000       0.435504        11.8507 
 105   0.0000       0.449185        12.2229 
 106   0.0000       0.467894        12.7320 
 107   0.0000       0.481635        13.1059 
 108   0.0000       0.488813        13.3013 
 109   0.0000       0.492389        13.3986 
 110   0.0000       0.501409        13.6440 
 111   0.0000       0.508551        13.8384 
 112   0.0000       0.514159        13.9910 
 113   0.0000       0.520186        14.1550 
 114   0.0000       0.533722        14.5233 
 115   0.0000       0.535263        14.5653 
 116   0.0000       0.541707        14.7406 
 117   0.0000       0.548529        14.9262 
 118   0.0000       0.555127        15.1058 
 119   0.0000       0.577644        15.7185 
 120   0.0000       0.583515        15.8782 
 121   0.0000       0.597172        16.2499 
 122   0.0000       0.598160        16.2768 
 123   0.0000       0.601862        16.3775 
 124   0.0000       0.607409        16.5284 
 125   0.0000       0.622470        16.9383 
 126   0.0000       0.630685        17.1618 
 127   0.0000       0.639083        17.3903 
 128   0.0000       0.648611        17.6496 
 129   0.0000       0.656843        17.8736 
 130   0.0000       0.672150        18.2901 
 131   0.0000       0.678542        18.4641 
 132   0.0000       0.697416        18.9777 
 133   0.0000       0.704524        19.1711 
 134   0.0000       0.712977        19.4011 
 135   0.0000       0.719269        19.5723 
 136   0.0000       0.720944        19.6179 
 137   0.0000       0.728611        19.8265 
 138   0.0000       0.731602        19.9079 
 139   0.0000       0.734650        19.9908 
 140   0.0000       0.739287        20.1170 
 141   0.0000       0.743880        20.2420 
 142   0.0000       0.749736        20.4014 
 143   0.0000       0.757545        20.6138 
 144   0.0000       0.759940        20.6790 
 145   0.0000       0.764066        20.7913 
 146   0.0000       0.769352        20.9351 
 147   0.0000       0.774816        21.0838 
 148   0.0000       0.776240        21.1226 
 149   0.0000       0.782180        21.2842 
 150   0.0000       0.789226        21.4759 
 151   0.0000       0.792208        21.5571 
 152   0.0000       0.796842        21.6832 
 153   0.0000       0.799544        21.7567 
 154   0.0000       0.806761        21.9531 
 155   0.0000       0.809563        22.0293 
 156   0.0000       0.813961        22.1490 
 157   0.0000       0.820947        22.3391 
 158   0.0000       0.825003        22.4495 
 159   0.0000       0.825467        22.4621 
 160   0.0000       0.832483        22.6530 
 161   0.0000       0.834431        22.7060 
 162   0.0000       0.843170        22.9438 
 163   0.0000       0.850637        23.1470 
 164   0.0000       0.855353        23.2753 
 165   0.0000       0.865397        23.5486 
 166   0.0000       0.873217        23.7614 
 167   0.0000       0.876047        23.8385 
 168   0.0000       0.879074        23.9208 
 169   0.0000       0.895229        24.3604 
 170   0.0000       0.901228        24.5237 
 171   0.0000       0.924136        25.1470 
 172   0.0000       0.933726        25.4080 
 173   0.0000       0.959944        26.1214 
 174   0.0000       0.969968        26.3942 
 175   0.0000       0.984999        26.8032 
 176   0.0000       0.993534        27.0354 
 177   0.0000       0.998482        27.1701 
 178   0.0000       1.017950        27.6998 
 179   0.0000       1.027112        27.9491 
 180   0.0000       1.056790        28.7567 
 181   0.0000       1.072804        29.1925 
 182   0.0000       1.087810        29.6008 
 183   0.0000       1.103490        30.0275 
 184   0.0000       1.122122        30.5345 
 185   0.0000       1.139873        31.0175 
 186   0.0000       1.143417        31.1140 
 187   0.0000       1.152325        31.3563 
 188   0.0000       1.173921        31.9440 
 189   0.0000       1.199839        32.6493 
 190   0.0000       1.206185        32.8220 
 191   0.0000       1.237362        33.6703 
 192   0.0000       1.245344        33.8875 
 193   0.0000       1.267502        34.4905 
 194   0.0000       1.287286        35.0288 
 195   0.0000       1.299971        35.3740 
 196   0.0000       1.304244        35.4903 
 197   0.0000       1.352396        36.8006 
 198   0.0000       1.354945        36.8699 
 199   0.0000       1.394209        37.9384 
 200   0.0000       1.397130        38.0178 
 201   0.0000       1.411764        38.4160 
 202   0.0000       1.419041        38.6141 
 203   0.0000       1.422054        38.6961 
 204   0.0000       1.462277        39.7906 
 205   0.0000       1.476295        40.1720 
 206   0.0000       1.487952        40.4892 
 207   0.0000       1.499136        40.7936 
 208   0.0000       1.519063        41.3358 
 209   0.0000       1.550135        42.1813 
 210   0.0000       1.597139        43.4604 
 211   0.0000       1.623627        44.1812 
 212   0.0000       1.631246        44.3884 
 213   0.0000       1.650047        44.9001 
 214   0.0000       1.654386        45.0181 
 215   0.0000       1.661785        45.2195 
 216   0.0000       1.677347        45.6429 
 217   0.0000       1.719433        46.7881 
 218   0.0000       1.737062        47.2679 
 219   0.0000       1.761123        47.9226 
 220   0.0000       1.796986        48.8985 
 221   0.0000       1.803722        49.0818 
 222   0.0000       1.815898        49.4131 
 223   0.0000       1.824700        49.6526 
 224   0.0000       1.828549        49.7573 
 225   0.0000       1.843303        50.1588 
 226   0.0000       1.853831        50.4453 
 227   0.0000       1.858267        50.5660 
 228   0.0000       1.864329        50.7310 
 229   0.0000       1.867902        50.8282 
 230   0.0000       1.875218        51.0273 
 231   0.0000       1.881207        51.1903 
 232   0.0000       1.886577        51.3364 
 233   0.0000       1.889765        51.4231 
 234   0.0000       1.897813        51.6421 
 235   0.0000       1.909934        51.9719 
 236   0.0000       1.911817        52.0232 
 237   0.0000       1.928465        52.4762 
 238   0.0000       1.940509        52.8039 
 239   0.0000       1.946709        52.9727 
 240   0.0000       1.950999        53.0894 
 241   0.0000       1.953107        53.1467 
 242   0.0000       1.965123        53.4737 
 243   0.0000       1.973548        53.7030 
 244   0.0000       1.983593        53.9763 
 245   0.0000       1.989070        54.1253 
 246   0.0000       1.990124        54.1540 
 247   0.0000       2.001237        54.4564 
 248   0.0000       2.016178        54.8630 
 249   0.0000       2.023140        55.0524 
 250   0.0000       2.039119        55.4873 
 251   0.0000       2.041217        55.5443 
 252   0.0000       2.056812        55.9687 
 253   0.0000       2.064349        56.1738 
 254   0.0000       2.079569        56.5879 
 255   0.0000       2.099709        57.1360 
 256   0.0000       2.111838        57.4660 
 257   0.0000       2.127826        57.9011 
 258   0.0000       2.140333        58.2414 
 259   0.0000       2.144469        58.3540 
 260   0.0000       2.158214        58.7280 
 261   0.0000       2.165539        58.9273 
 262   0.0000       2.186065        59.4859 
 263   0.0000       2.195265        59.7362 
 264   0.0000       2.219766        60.4029 
 265   0.0000       2.250926        61.2508 
 266   0.0000       2.262080        61.5543 
 267   0.0000       2.281234        62.0755 
 268   0.0000       2.292966        62.3948 
 269   0.0000       2.307678        62.7951 
 270   0.0000       2.324958        63.2653 
 271   0.0000       2.357730        64.1571 
 272   0.0000       2.381630        64.8075 
 273   0.0000       2.389144        65.0119 
 274   0.0000       2.398750        65.2733 
 275   0.0000       2.409518        65.5663 
 276   0.0000       2.425189        65.9928 
 277   0.0000       2.442816        66.4724 
 278   0.0000       2.470215        67.2180 
 279   0.0000       2.488698        67.7209 
 280   0.0000       2.502914        68.1078 
 281   0.0000       2.516894        68.4882 
 282   0.0000       2.528040        68.7915 
 283   0.0000       2.540216        69.1228 
 284   0.0000       2.548279        69.3422 
 285   0.0000       2.562183        69.7206 
 286   0.0000       2.570004        69.9334 
 287   0.0000       2.591525        70.5190 
 288   0.0000       2.605016        70.8861 
 289   0.0000       2.635676        71.7204 
 290   0.0000       2.653552        72.2068 
 291   0.0000       2.677352        72.8545 
 292   0.0000       2.686798        73.1115 
 293   0.0000       2.695467        73.3474 
 294   0.0000       2.714398        73.8625 
 295   0.0000       2.727895        74.2298 
 296   0.0000       2.746508        74.7363 
 297   0.0000       2.753606        74.9294 
 298   0.0000       2.764554        75.2273 
 299   0.0000       2.817273        76.6619 
 300   0.0000       2.856321        77.7245 
 301   0.0000       2.886196        78.5374 
 302   0.0000       2.901599        78.9565 
 303   0.0000       2.917912        79.4004 
 304   0.0000       2.949999        80.2735 
 305   0.0000       2.958872        80.5150 
 306   0.0000       2.983258        81.1786 
 307   0.0000       2.996268        81.5326 
 308   0.0000       3.027230        82.3751 
 309   0.0000       3.069912        83.5366 
 310   0.0000       3.073090        83.6230 
 311   0.0000       3.097718        84.2932 
 312   0.0000       3.101770        84.4035 
 313   0.0000       3.113280        84.7167 
 314   0.0000       3.132371        85.2361 
 315   0.0000       3.141909        85.4957 
 316   0.0000       3.188382        86.7603 
 317   0.0000       3.198958        87.0481 
 318   0.0000       3.237866        88.1068 
 319   0.0000       3.284997        89.3893 
 320   0.0000       3.375702        91.8575 
 321   0.0000       3.447698        93.8166 

                    ********************************
                    * MULLIKEN POPULATION ANALYSIS *
                    ********************************

-----------------------
MULLIKEN ATOMIC CHARGES
-----------------------
   0 S :    0.104013
   1 C :   -0.144222
   2 C :   -0.088887
   3 C :    0.036448
   4 C :   -0.166884
   5 H :    0.007661
   6 C :    0.039479
   7 H :    0.011950
   8 H :    0.041755
   9 C :   -0.044608
  10 H :    0.018515
  11 H :    0.031241
  12 C :   -0.057416
  13 H :    0.022959
  14 H :    0.046469
  15 H :    0.043687
  16 S :    0.119988
  17 C :   -0.092993
  18 C :   -0.072986
  19 C :    0.012878
  20 C :   -0.185259
  21 H :    0.044628
  22 C :    0.102355
  23 H :    0.007154
  24 H :    0.019368
  25 C :   -0.107696
  26 H :    0.040497
  27 H :    0.026436
  28 C :   -0.020578
  29 H :    0.022509
  30 H :    0.025536
  31 H :    0.037780
  32 H :    0.060384
  33 H :    0.057839
Sum of atomic charges:   -0.0000000

--------------------------------
MULLIKEN REDUCED ORBITAL CHARGES
--------------------------------
  0 S s       :     5.839169  s :     5.839169
      pz      :     3.342916  p :     9.941123
      px      :     3.343877
      py      :     3.254330
      dz2     :     0.015923  d :     0.115695
      dxz     :     0.027910
      dyz     :     0.031732
      dx2y2   :     0.025605
      dxy     :     0.014526
  1 C s       :     3.183478  s :     3.183478
      pz      :     0.934024  p :     2.922449
      px      :     1.015531
      py      :     0.972894
      dz2     :     0.008196  d :     0.038294
      dxz     :     0.010154
      dyz     :     0.011537
      dx2y2   :     0.003557
      dxy     :     0.004850
  2 C s       :     3.049137  s :     3.049137
      pz      :     0.973965  p :     2.991429
      px      :     0.995433
      py      :     1.022032
      dz2     :     0.012928  d :     0.048321
      dxz     :     0.011653
      dyz     :     0.010317
      dx2y2   :     0.007053
      dxy     :     0.006370
  3 C s       :     3.199075  s :     3.199075
      pz      :     0.854473  p :     2.727366
      px      :     0.920279
      py      :     0.952614
      dz2     :     0.008694  d :     0.037110
      dxz     :     0.009445
      dyz     :     0.007338
      dx2y2   :     0.006353
      dxy     :     0.005280
  4 C s       :     3.092696  s :     3.092696
      pz      :     0.954075  p :     3.030295
      px      :     1.045654
      py      :     1.030566
      dz2     :     0.008068  d :     0.043893
      dxz     :     0.011713
      dyz     :     0.012605
      dx2y2   :     0.005496
      dxy     :     0.006010
  5 H s       :     0.969195  s :     0.969195
      pz      :     0.010093  p :     0.023144
      px      :     0.007945
      py      :     0.005107
  6 C s       :     2.994520  s :     2.994520
      pz      :     0.932939  p :     2.928419
      px      :     0.975293
      py      :     1.020187
      dz2     :     0.008014  d :     0.037582
      dxz     :     0.010101
      dyz     :     0.007219
      dx2y2   :     0.005276
      dxy     :     0.006972
  7 H s       :     0.966896  s :     0.966896
      pz      :     0.004547  p :     0.021154
      px      :     0.006030
      py      :     0.010577
  8 H s       :     0.937968  s :     0.937968
      pz      :     0.006295  p :     0.020277
      px      :     0.009386
      py      :     0.004597
  9 C s       :     3.003880  s :     3.003880
      pz      :     1.016438  p :     3.000002
      px      :     0.982914
      py      :     1.000649
      dz2     :     0.007976  d :     0.040727
      dxz     :     0.007318
      dyz     :     0.006969
      dx2y2   :     0.007866
      dxy     :     0.010597
 10 H s       :     0.958454  s :     0.958454
      pz      :     0.004579  p :     0.023031
      px      :     0.006459
      py      :     0.011993
 11 H s       :     0.946287  s :     0.946287
      pz      :     0.011987  p :     0.022472
      px      :     0.004120
      py      :     0.006366
 12 C s       :     3.019908  s :     3.019908
      pz      :     1.011504  p :     3.008445
      px      :     0.984129
      py      :     1.012812
      dz2     :     0.005452  d :     0.029063
      dxz     :     0.004592
      dyz     :     0.006559
      dx2y2   :     0.003929
      dxy     :     0.008530
 13 H s       :     0.951622  s :     0.951622
      pz      :     0.005735  p :     0.025419
      px      :     0.008959
      py      :     0.010725
 14 H s       :     0.931029  s :     0.931029
      pz      :     0.011889  p :     0.022502
      px      :     0.004264
      py      :     0.006349
 15 H s       :     0.933937  s :     0.933937
      pz      :     0.008040  p :     0.022377
      px      :     0.005285
      py      :     0.009052
 16 S s       :     5.840235  s :     5.840235
      pz      :     3.592000  p :     9.929646
      px      :     3.276763
      py      :     3.060883
      dz2     :     0.015655  d :     0.110132
      dxz     :     0.017408
      dyz     :     0.016783
      dx2y2   :     0.028337
      dxy     :     0.031948
 17 C s       :     3.136684  s :     3.136684
      pz      :     1.058684  p :     2.918686
      px      :     0.909749
      py      :     0.950253
      dz2     :     0.003051  d :     0.037623
      dxz     :     0.008710
      dyz     :     0.004125
      dx2y2   :     0.011906
      dxy     :     0.009832
 18 C s       :     3.186802  s :     3.186802
      pz      :     1.018748  p :     2.851214
      px      :     0.896467
      py      :     0.935999
      dz2     :     0.004024  d :     0.034970
      dxz     :     0.004627
      dyz     :     0.006255
      dx2y2   :     0.008738
      dxy     :     0.011326
 19 C s       :     3.044937  s :     3.044937
      pz      :     0.967606  p :     2.897612
      px      :     0.965531
      py      :     0.964474
      dz2     :     0.004918  d :     0.044573
      dxz     :     0.009054
      dyz     :     0.006150
      dx2y2   :     0.013396
      dxy     :     0.011055
 20 C s       :     3.079113  s :     3.079113
      pz      :     1.118168  p :     3.062429
      px      :     1.006806
      py      :     0.937455
      dz2     :     0.003641  d :     0.043717
      dxz     :     0.009539
      dyz     :     0.004661
      dx2y2   :     0.012195
      dxy     :     0.013682
 21 H s       :     0.933904  s :     0.933904
      pz      :     0.004683  p :     0.021468
      px      :     0.012688
      py      :     0.004096
 22 C s       :     2.923998  s :     2.923998
      pz      :     1.027435  p :     2.937324
      px      :     0.973835
      py      :     0.936054
      dz2     :     0.008318  d :     0.036323
      dxz     :     0.003067
      dyz     :     0.009421
      dx2y2   :     0.005698
      dxy     :     0.009818
 23 H s       :     0.968624  s :     0.968624
      pz      :     0.005323  p :     0.024222
      px      :     0.012357
      py      :     0.006542
 24 H s       :     0.957338  s :     0.957338
      pz      :     0.011540  p :     0.023294
      px      :     0.004169
      py      :     0.007585
 25 C s       :     3.104458  s :     3.104458
      pz      :     1.003328  p :     2.968414
      px      :     1.017800
      py      :     0.947286
      dz2     :     0.006272  d :     0.034824
      dxz     :     0.004601
      dyz     :     0.010942
      dx2y2   :     0.006212
      dxy     :     0.006797
 26 H s       :     0.938211  s :     0.938211
      pz      :     0.004511  p :     0.021292
      px      :     0.012592
      py      :     0.004190
 27 H s       :     0.951785  s :     0.951785
      pz      :     0.010182  p :     0.021779
      px      :     0.005205
      py      :     0.006392
 28 C s       :     2.991207  s :     2.991207
      pz      :     1.026228  p :     3.002448
      px      :     0.999033
      py      :     0.977187
      dz2     :     0.002634  d :     0.026923
      dxz     :     0.006153
      dyz     :     0.007988
      dx2y2   :     0.004114
      dxy     :     0.006035
 29 H s       :     0.950591  s :     0.950591
      pz      :     0.009123  p :     0.026899
      px      :     0.008509
      py      :     0.009267
 30 H s       :     0.949000  s :     0.949000
      pz      :     0.012278  p :     0.025463
      px      :     0.005948
      py      :     0.007237
 31 H s       :     0.939472  s :     0.939472
      pz      :     0.007350  p :     0.022748
      px      :     0.011107
      py      :     0.004290
 32 H s       :     0.916997  s :     0.916997
      pz      :     0.002825  p :     0.022620
      px      :     0.009305
      py      :     0.010490
 33 H s       :     0.918560  s :     0.918560
      pz      :     0.006175  p :     0.023601
      px      :     0.002939
      py      :     0.014488


                     *******************************
                     * LOEWDIN POPULATION ANALYSIS *
                     *******************************

----------------------
LOEWDIN ATOMIC CHARGES
----------------------
   0 S :    0.421457
   1 C :   -0.207739
   2 C :   -0.088054
   3 C :   -0.062226
   4 C :   -0.196587
   5 H :    0.031114
   6 C :   -0.038149
   7 H :    0.030328
   8 H :    0.039038
   9 C :   -0.048957
  10 H :    0.025110
  11 H :    0.026695
  12 C :   -0.064347
  13 H :    0.012544
  14 H :    0.034303
  15 H :    0.037752
  16 S :    0.414805
  17 C :   -0.200183
  18 C :   -0.087951
  19 C :   -0.049579
  20 C :   -0.188375
  21 H :    0.043332
  22 C :   -0.027941
  23 H :    0.024145
  24 H :    0.027489
  25 C :   -0.037052
  26 H :    0.027946
  27 H :    0.022090
  28 C :   -0.059491
  29 H :    0.018329
  30 H :    0.023941
  31 H :    0.029239
  32 H :    0.037430
  33 H :    0.029544

-------------------------------
LOEWDIN REDUCED ORBITAL CHARGES
-------------------------------
  0 S s       :     5.482077  s :     5.482077
      pz      :     3.379598  p :     9.952519
      px      :     3.323795
      py      :     3.249126
      dz2     :     0.017095  d :     0.143947
      dxz     :     0.034570
      dyz     :     0.040354
      dx2y2   :     0.031804
      dxy     :     0.020124
  1 C s       :     2.915328  s :     2.915328
      pz      :     1.061239  p :     3.199460
      px      :     1.073896
      py      :     1.064325
      dz2     :     0.023605  d :     0.092950
      dxz     :     0.024947
      dyz     :     0.028124
      dx2y2   :     0.005739
      dxy     :     0.010536
  2 C s       :     2.840852  s :     2.840852
      pz      :     1.071289  p :     3.124789
      px      :     1.030293
      py      :     1.023207
      dz2     :     0.036591  d :     0.122414
      dxz     :     0.029160
      dyz     :     0.024937
      dx2y2   :     0.015077
      dxy     :     0.016649
  3 C s       :     2.859704  s :     2.859704
      pz      :     1.046977  p :     3.103975
      px      :     1.029240
      py      :     1.027758
      dz2     :     0.025911  d :     0.098547
      dxz     :     0.024953
      dyz     :     0.020448
      dx2y2   :     0.013655
      dxy     :     0.013580
  4 C s       :     2.912997  s :     2.912997
      pz      :     1.075247  p :     3.180721
      px      :     1.040828
      py      :     1.064646
      dz2     :     0.021347  d :     0.102868
      dxz     :     0.026681
      dyz     :     0.030433
      dx2y2   :     0.011321
      dxy     :     0.013086
  5 H s       :     0.901661  s :     0.901661
      pz      :     0.029035  p :     0.067225
      px      :     0.022828
      py      :     0.015362
  6 C s       :     2.837021  s :     2.837021
      pz      :     1.017213  p :     3.107160
      px      :     1.040813
      py      :     1.049134
      dz2     :     0.019786  d :     0.093968
      dxz     :     0.026194
      dyz     :     0.018004
      dx2y2   :     0.011616
      dxy     :     0.018368
  7 H s       :     0.909937  s :     0.909937
      pz      :     0.012700  p :     0.059735
      px      :     0.017313
      py      :     0.029722
  8 H s       :     0.902291  s :     0.902291
      pz      :     0.018796  p :     0.058671
      px      :     0.026846
      py      :     0.013029
  9 C s       :     2.817904  s :     2.817904
      pz      :     1.047889  p :     3.130850
      px      :     1.031915
      py      :     1.051047
      dz2     :     0.019102  d :     0.100203
      dxz     :     0.018761
      dyz     :     0.017498
      dx2y2   :     0.018696
      dxy     :     0.026145
 10 H s       :     0.908099  s :     0.908099
      pz      :     0.013606  p :     0.066791
      px      :     0.019357
      py      :     0.033828
 11 H s       :     0.906318  s :     0.906318
      pz      :     0.034819  p :     0.066987
      px      :     0.013648
      py      :     0.018519
 12 C s       :     2.832289  s :     2.832289
      pz      :     1.053902  p :     3.158103
      px      :     1.040127
      py      :     1.064074
      dz2     :     0.013653  d :     0.073955
      dxz     :     0.011687
      dyz     :     0.016801
      dx2y2   :     0.010389
      dxy     :     0.021425
 13 H s       :     0.912688  s :     0.912688
      pz      :     0.016339  p :     0.074768
      px      :     0.027255
      py      :     0.031174
 14 H s       :     0.904728  s :     0.904728
      pz      :     0.032465  p :     0.060969
      px      :     0.012277
      py      :     0.016227
 15 H s       :     0.901157  s :     0.901157
      pz      :     0.021789  p :     0.061091
      px      :     0.014649
      py      :     0.024653
 16 S s       :     5.499536  s :     5.499536
      pz      :     3.551179  p :     9.949257
      px      :     3.325734
      py      :     3.072345
      dz2     :     0.019159  d :     0.136401
      dxz     :     0.019349
      dyz     :     0.021502
      dx2y2   :     0.036387
      dxy     :     0.040005
 17 C s       :     2.920205  s :     2.920205
      pz      :     1.065236  p :     3.190106
      px      :     1.051448
      py      :     1.073422
      dz2     :     0.006336  d :     0.089872
      dxz     :     0.018460
      dyz     :     0.007615
      dx2y2   :     0.030243
      dxy     :     0.027218
 18 C s       :     2.884164  s :     2.884164
      pz      :     1.033162  p :     3.114474
      px      :     1.045942
      py      :     1.035370
      dz2     :     0.008893  d :     0.089313
      dxz     :     0.009244
      dyz     :     0.014482
      dx2y2   :     0.025025
      dxy     :     0.031668
 19 C s       :     2.853194  s :     2.853194
      pz      :     0.977450  p :     3.084006
      px      :     1.074765
      py      :     1.031791
      dz2     :     0.010966  d :     0.112379
      dxz     :     0.019625
      dyz     :     0.013580
      dx2y2   :     0.036574
      dxy     :     0.031634
 20 C s       :     2.902085  s :     2.902085
      pz      :     1.096857  p :     3.181549
      px      :     1.082014
      py      :     1.002678
      dz2     :     0.008114  d :     0.104741
      dxz     :     0.020300
      dyz     :     0.009589
      dx2y2   :     0.030707
      dxy     :     0.036031
 21 H s       :     0.896338  s :     0.896338
      pz      :     0.013472  p :     0.060330
      px      :     0.034361
      py      :     0.012497
 22 C s       :     2.820012  s :     2.820012
      pz      :     1.063256  p :     3.117472
      px      :     1.031122
      py      :     1.023094
      dz2     :     0.020217  d :     0.090457
      dxz     :     0.005695
      dyz     :     0.025653
      dx2y2   :     0.013194
      dxy     :     0.025699
 23 H s       :     0.903470  s :     0.903470
      pz      :     0.016418  p :     0.072385
      px      :     0.036500
      py      :     0.019467
 24 H s       :     0.904589  s :     0.904589
      pz      :     0.033444  p :     0.067922
      px      :     0.012454
      py      :     0.022025
 25 C s       :     2.857360  s :     2.857360
      pz      :     1.043287  p :     3.097918
      px      :     1.050621
      py      :     1.004010
      dz2     :     0.014016  d :     0.081774
      dxz     :     0.010529
      dyz     :     0.026811
      dx2y2   :     0.013902
      dxy     :     0.016517
 26 H s       :     0.910755  s :     0.910755
      pz      :     0.013579  p :     0.061299
      px      :     0.035141
      py      :     0.012580
 27 H s       :     0.912995  s :     0.912995
      pz      :     0.029805  p :     0.064915
      px      :     0.014900
      py      :     0.020210
 28 C s       :     2.827872  s :     2.827872
      pz      :     1.080538  p :     3.163707
      px      :     1.054755
      py      :     1.028414
      dz2     :     0.007214  d :     0.067912
      dxz     :     0.015920
      dyz     :     0.019097
      dx2y2   :     0.009329
      dxy     :     0.016352
 29 H s       :     0.904394  s :     0.904394
      pz      :     0.024313  p :     0.077277
      px      :     0.024369
      py      :     0.028595
 30 H s       :     0.903481  s :     0.903481
      pz      :     0.033487  p :     0.072578
      px      :     0.016391
      py      :     0.022700
 31 H s       :     0.907962  s :     0.907962
      pz      :     0.019593  p :     0.062799
      px      :     0.030815
      py      :     0.012391
 32 H s       :     0.893462  s :     0.893462
      pz      :     0.009992  p :     0.069108
      px      :     0.028063
      py      :     0.031052
 33 H s       :     0.895994  s :     0.895994
      pz      :     0.020031  p :     0.074462
      px      :     0.012506
      py      :     0.041925


                      *****************************
                      * MAYER POPULATION ANALYSIS *
                      *****************************

  NA   - Mulliken gross atomic population
  ZA   - Total nuclear charge
  QA   - Mulliken gross atomic charge
  VA   - Mayer's total valence
  BVA  - Mayer's bonded valence
  FA   - Mayer's free valence

  ATOM       NA         ZA         QA         VA         BVA        FA
  0 S     15.8960    16.0000     0.1040     2.5085     2.5085     0.0000
  1 C      6.1442     6.0000    -0.1442     3.8450     3.8450    -0.0000
  2 C      6.0889     6.0000    -0.0889     4.0235     4.0235    -0.0000
  3 C      5.9636     6.0000     0.0364     3.9120     3.9120     0.0000
  4 C      6.1669     6.0000    -0.1669     3.8750     3.8750    -0.0000
  5 H      0.9923     1.0000     0.0077     1.0006     1.0006    -0.0000
  6 C      5.9605     6.0000     0.0395     3.9695     3.9695    -0.0000
  7 H      0.9881     1.0000     0.0119     0.9874     0.9874    -0.0000
  8 H      0.9582     1.0000     0.0418     0.9809     0.9809    -0.0000
  9 C      6.0446     6.0000    -0.0446     4.0923     4.0923     0.0000
 10 H      0.9815     1.0000     0.0185     0.9822     0.9822     0.0000
 11 H      0.9688     1.0000     0.0312     0.9773     0.9773    -0.0000
 12 C      6.0574     6.0000    -0.0574     3.9963     3.9963     0.0000
 13 H      0.9770     1.0000     0.0230     0.9912     0.9912     0.0000
 14 H      0.9535     1.0000     0.0465     0.9908     0.9908     0.0000
 15 H      0.9563     1.0000     0.0437     0.9853     0.9853     0.0000
 16 S     15.8800    16.0000     0.1200     2.4902     2.4902     0.0000
 17 C      6.0930     6.0000    -0.0930     3.8623     3.8623     0.0000
 18 C      6.0730     6.0000    -0.0730     3.9477     3.9477     0.0000
 19 C      5.9871     6.0000     0.0129     4.0366     4.0366     0.0000
 20 C      6.1853     6.0000    -0.1853     3.9004     3.9004    -0.0000
 21 H      0.9554     1.0000     0.0446     0.9911     0.9911     0.0000
 22 C      5.8976     6.0000     0.1024     3.9582     3.9582    -0.0000
 23 H      0.9928     1.0000     0.0072     0.9861     0.9861    -0.0000
 24 H      0.9806     1.0000     0.0194     0.9955     0.9955    -0.0000
 25 C      6.1077     6.0000    -0.1077     4.0652     4.0652    -0.0000
 26 H      0.9595     1.0000     0.0405     0.9866     0.9866    -0.0000
 27 H      0.9736     1.0000     0.0264     0.9791     0.9791    -0.0000
 28 C      6.0206     6.0000    -0.0206     3.9896     3.9896    -0.0000
 29 H      0.9775     1.0000     0.0225     0.9918     0.9918     0.0000
 30 H      0.9745     1.0000     0.0255     0.9909     0.9909    -0.0000
 31 H      0.9622     1.0000     0.0378     0.9905     0.9905     0.0000
 32 H      0.9396     1.0000     0.0604     1.0011     1.0011    -0.0000
 33 H      0.9422     1.0000     0.0578     0.9939     0.9939    -0.0000

  Mayer bond orders larger than 0.100000
B(  0-S ,  1-C ) :   1.1607 B(  0-S ,  4-C ) :   1.1595 B(  1-C ,  2-C ) :   1.6028 
B(  1-C , 32-H ) :   0.9591 B(  2-C ,  3-C ) :   1.2689 B(  2-C ,  6-C ) :   1.0154 
B(  3-C ,  4-C ) :   1.5791 B(  3-C ,  5-H ) :   0.9988 B(  4-C , 20-C ) :   0.9896 
B(  6-C ,  7-H ) :   0.9340 B(  6-C ,  8-H ) :   0.9371 B(  6-C ,  9-C ) :   1.0881 
B(  9-C , 10-H ) :   0.9491 B(  9-C , 11-H ) :   0.9487 B(  9-C , 12-C ) :   1.0849 
B( 12-C , 13-H ) :   0.9760 B( 12-C , 14-H ) :   0.9702 B( 12-C , 15-H ) :   0.9717 
B( 16-S , 17-C ) :   1.1773 B( 16-S , 20-C ) :   1.1265 B( 17-C , 18-C ) :   1.6245 
B( 17-C , 33-H ) :   0.9652 B( 18-C , 19-C ) :   1.2097 B( 18-C , 21-H ) :   0.9765 
B( 19-C , 20-C ) :   1.6640 B( 19-C , 22-C ) :   1.0407 B( 22-C , 23-H ) :   0.9281 
B( 22-C , 24-H ) :   0.9385 B( 22-C , 25-C ) :   1.0597 B( 25-C , 26-H ) :   0.9599 
B( 25-C , 27-H ) :   0.9595 B( 25-C , 28-C ) :   1.0605 B( 28-C , 29-H ) :   0.9746 
B( 28-C , 30-H ) :   0.9742 B( 28-C , 31-H ) :   0.9781 

-------
TIMINGS
-------

Total SCF time: 0 days 0 hours 0 min 29 sec 

Total time                  ....      29.662 sec
Sum of individual times     ....      28.724 sec  ( 96.8%)

Fock matrix formation       ....      26.898 sec  ( 90.7%)
  XC integration            ....       1.913 sec  (  7.1% of F)
    Basis function eval.    ....       0.220 sec  ( 11.5% of XC)
    Density eval.           ....       0.156 sec  (  8.1% of XC)
    XC-Functional eval.     ....       0.188 sec  (  9.8% of XC)
    XC-Potential eval.      ....       0.192 sec  ( 10.1% of XC)
Diagonalization             ....       0.134 sec  (  0.5%)
Density matrix formation    ....       0.022 sec  (  0.1%)
Population analysis         ....       0.049 sec  (  0.2%)
Initial guess               ....       0.192 sec  (  0.6%)
Orbital Transformation      ....       0.000 sec  (  0.0%)
Orbital Orthonormalization  ....       0.000 sec  (  0.0%)
DIIS solution               ....       0.166 sec  (  0.6%)
SOSCF solution              ....       0.122 sec  (  0.4%)
Grid generation             ....       1.142 sec  (  3.8%)


-------------------------------------------------------------------------------
                          DFT DISPERSION CORRECTION                            
                                                                               
                              DFTD3 V3.1  Rev 1                                
                              USING zero damping                               
-------------------------------------------------------------------------------
The omegaB97X-D3 functional is recognized. Fit by Chai et al.
Active option DFTDOPT                   ...         3   

molecular C6(AA) [au] = 14093.575751 


            DFT-D V3
 parameters
 s6 scaling factor         :     1.0000 
 rs6 scaling factor        :     1.2810 
 s8 scaling factor         :     1.0000 
 rs8 scaling factor        :     1.0940 
 Damping factor alpha6     :    14.0000 
 Damping factor alpha8     :    16.0000 
 ad hoc parameters k1-k3   :    16.0000     1.3333    -4.0000 

 Edisp/kcal,au: -8.989992575896  -0.014326463565 
 E6   /kcal   :  -4.118631657 
 E8   /kcal   :  -4.871360919 
 % E8         :  54.186484339 

-------------------------   ----------------
Dispersion correction           -0.014326464
-------------------------   ----------------


-------------------------   --------------------
FINAL SINGLE POINT ENERGY     -1339.871041316532
-------------------------   --------------------


                            ***************************************
                            *     ORCA property calculations      *
                            ***************************************

                                    ---------------------
                                    Active property flags
                                    ---------------------
   (+) Dipole Moment


------------------------------------------------------------------------------
                       ORCA ELECTRIC PROPERTIES CALCULATION
------------------------------------------------------------------------------

Dipole Moment Calculation                       ... on
Quadrupole Moment Calculation                   ... off
Polarizability Calculation                      ... off
GBWName                                         ... config_7825.gbw
Electron density file                           ... config_7825.scfp
The origin for moment calculation is the CENTER OF MASS  = (-80.882137, 92.242370 198.063990)

-------------
DIPOLE MOMENT
-------------
                                X             Y             Z
Electronic contribution:     -4.97929     -13.36410     -12.03478
Nuclear contribution   :      5.28307      13.52109      12.37159
                        -----------------------------------------
Total Dipole Moment    :      0.30378       0.15699       0.33681
                        -----------------------------------------
Magnitude (a.u.)       :      0.47997
Magnitude (Debye)      :      1.21998



--------------------
Rotational spectrum 
--------------------
 
Rotational constants in cm-1:     0.019322     0.008429     0.006881 
Rotational constants in MHz :   579.246746   252.689488   206.278481 

 Dipole components along the rotational axes: 
x,y,z [a.u.] :     0.002297    -0.301400     0.373523 
x,y,z [Debye]:     0.005838    -0.766099     0.949421 

 

Timings for individual modules:

Sum of individual times         ...       30.737 sec (=   0.512 min)
GTO integral calculation        ...        0.728 sec (=   0.012 min)   2.4 %
SCF iterations                  ...       30.009 sec (=   0.500 min)  97.6 %
                             ****ORCA TERMINATED NORMALLY****
TOTAL RUN TIME: 0 days 0 hours 0 minutes 31 seconds 358 msec
