
                                 *****************
                                 * O   R   C   A *
                                 *****************

           --- An Ab Initio, DFT and Semiempirical electronic structure package ---

                  #######################################################
                  #                        -***-                        #
                  #          Department of theory and spectroscopy      #
                  #               Directorship: Frank Neese             #
                  #        Max Planck Institute fuer Kohlenforschung    #
                  #                Kaiser Wilhelm Platz 1               #
                  #                 D-45470 Muelheim/Ruhr               #
                  #                      Germany                        #
                  #                                                     #
                  #                  All rights reserved                #
                  #                        -***-                        #
                  #######################################################


                         Program Version 4.2.1 -  RELEASE  -


 With contributions from (in alphabetic order):
   Daniel Aravena         : Magnetic Suceptibility
   Michael Atanasov       : Ab Initio Ligand Field Theory (pilot matlab implementation)
   Alexander A. Auer      : GIAO ZORA, VPT2
   Ute Becker             : Parallelization
   Giovanni Bistoni       : ED, misc. LED, open-shell LED, HFLD
   Martin Brehm           : Molecular dynamics
   Dmytro Bykov           : SCF Hessian
   Vijay G. Chilkuri      : MRCI spin determinant printing, contributions to CSF-ICE
   Dipayan Datta          : RHF DLPNO-CCSD density
   Achintya Kumar Dutta   : EOM-CC, STEOM-CC
   Dmitry Ganyushin       : Spin-Orbit,Spin-Spin,Magnetic field MRCI
   Miquel Garcia          : C-PCM Hessian, Gaussian charge scheme
   Yang Guo               : DLPNO-NEVPT2, CIM, IAO-localization
   Andreas Hansen         : Spin unrestricted coupled pair/coupled cluster methods
   Benjamin Helmich-Paris : CASSCF linear response (MC-RPA)
   Lee Huntington         : MR-EOM, pCC
   Robert Izsak           : Overlap fitted RIJCOSX, COSX-SCS-MP3, EOM
   Christian Kollmar      : KDIIS, OOCD, Brueckner-CCSD(T), CCSD density
   Simone Kossmann        : Meta GGA functionals, TD-DFT gradient, OOMP2, MP2 Hessian
   Martin Krupicka        : AUTO-CI
   Lucas Lang             : DCDCAS
   Dagmar Lenk            : GEPOL surface, SMD
   Dimitrios Liakos       : Extrapolation schemes; Compound Job, initial MDCI parallelization
   Dimitrios Manganas     : Further ROCIS development; embedding schemes
   Dimitrios Pantazis     : SARC Basis sets
   Taras Petrenko         : DFT Hessian,TD-DFT gradient, ASA, ECA, R-Raman, ABS, FL, XAS/XES, NRVS
   Peter Pinski           : DLPNO-MP2, DLPNO-MP2 Gradient
   Christoph Reimann      : Effective Core Potentials
   Marius Retegan         : Local ZFS, SOC
   Christoph Riplinger    : Optimizer, TS searches, QM/MM, DLPNO-CCSD(T), (RO)-DLPNO pert. Triples
   Tobias Risthaus        : Range-separated hybrids, TD-DFT gradient, RPA, STAB
   Michael Roemelt        : Original ROCIS implementation
   Masaaki Saitow         : Open-shell DLPNO-CCSD energy and density
   Barbara Sandhoefer     : DKH picture change effects
   Avijit Sen             : IP-ROCIS
   Kantharuban Sivalingam : CASSCF convergence, NEVPT2, FIC-MRCI
   Bernardo de Souza      : ESD, SOC TD-DFT
   Georgi Stoychev        : AutoAux, RI-MP2 NMR
   Willem Van den Heuvel  : Paramagnetic NMR
   Boris Wezisla          : Elementary symmetry handling
   Frank Wennmohs         : Technical directorship


 We gratefully acknowledge several colleagues who have allowed us to
 interface, adapt or use parts of their codes:
   Stefan Grimme, W. Hujo, H. Kruse,             : VdW corrections, initial TS optimization,
                  C. Bannwarth                     DFT functionals, gCP, sTDA/sTD-DF
   Ed Valeev, F. Pavosevic, A. Kumar             : LibInt (2-el integral package), F12 methods
   Garnet Chan, S. Sharma, J. Yang, R. Olivares  : DMRG
   Ulf Ekstrom                                   : XCFun DFT Library
   Mihaly Kallay                                 : mrcc  (arbitrary order and MRCC methods)
   Andreas Klamt, Michael Diedenhofen            : otool_cosmo (COSMO solvation model)
   Jiri Pittner, Ondrej Demel                    : Mk-CCSD
   Frank Weinhold                                : gennbo (NPA and NBO analysis)
   Christopher J. Cramer and Donald G. Truhlar   : smd solvation model
   Lars Goerigk                                  : TD-DFT with DH, B97 family of functionals
   V. Asgeirsson, H. Jonsson                     : NEB implementation
   FAccTs GmbH                                   : IRC, NEB, NEB-TS, Multilevel, MM, QM/MM, CI optimization
   S Lehtola, MJT Oliveira, MAL Marques          : LibXC Library


 Your calculation uses the libint2 library for the computation of 2-el integrals
 For citations please refer to: http://libint.valeyev.net

 Your ORCA version has been built with support for libXC version: 4.2.3
 For citations please refer to: https://tddft.org/programs/libxc/

 This ORCA versions uses:
   CBLAS   interface :  Fast vector & matrix operations
   LAPACKE interface :  Fast linear algebra routines
   SCALAPACK package :  Parallel linear algebra routines


Your calculation utilizes the atom-pairwise dispersion correction
with the zero-damping scheme (D30)
Cite in your paper:
S.Grimme, J.Antony, S.Ehrlich and H.Krieg, J.Chem.Phys., 132, (2010), 154104 
   

XCFun DFT library Copyright 2009-2010 Ulf Ekstrom and contributors.
See http://admol.org/xcfun for more information. This is free soft-
ware; see the source code for copying conditions. There is ABSOLUTELY
NO WARRANTY; not even for MERCHANTABILITY or FITNESS FOR A PARTICULAR
PURPOSE. For details see the documentation. Scientific users of this 
library should cite U. Ekstrom, L. Visscher, R. Bast, A. J. Thorvald-
sen and K. Ruud; J.Chem.Theor.Comp. 2010, DOI: 10.1021/ct100117s
XCFun Version 0.99 
----- Orbital basis set information -----
Your calculation utilizes the basis: def2-SVP
   F. Weigend and R. Ahlrichs, Phys. Chem. Chem. Phys. 7, 3297 (2005).

================================================================================
                                        WARNINGS
                       Please study these warnings very carefully!
================================================================================


INFO   : the flag for use of LIBINT has been found!

================================================================================
                                       INPUT FILE
================================================================================
NAME = config_3061.inp
|  1> ! wB97X-D3 SP def2-SVP
|  2> %pal
|  3> nprocs 16
|  4> end
|  5> 
|  6> * xyz 0 1
|  7> S 	 42.8291 	 13.1967 	 82.9297 	 
|  8> C 	 43.1053 	 14.3427 	 81.5563 	 
|  9> C 	 43.3403 	 15.6191 	 82.0513 	 
| 10> C 	 43.2713 	 15.6949 	 83.5268 	 
| 11> C 	 42.965 	 14.4995 	 84.0961 	 
| 12> H 	 43.312 	 16.5895 	 84.1317 	 
| 13> C 	 43.6615 	 16.8388 	 81.1837 	 
| 14> H 	 44.317 	 16.5424 	 80.3896 	 
| 15> H 	 44.2493 	 17.4341 	 81.8654 	 
| 16> C 	 42.3504 	 17.4372 	 80.5278 	 
| 17> H 	 41.9427 	 16.5717 	 79.9742 	 
| 18> H 	 41.5796 	 17.8445 	 81.1693 	 
| 19> C 	 42.5991 	 18.5754 	 79.4835 	 
| 20> H 	 43.408 	 19.2412 	 79.8654 	 
| 21> H 	 43.0383 	 18.0699 	 78.5614 	 
| 22> H 	 41.6855 	 19.0641 	 79.1507 	 
| 23> S 	 41.3203 	 15.182 	 86.0944 	 
| 24> C 	 41.7367 	 14.6817 	 87.714 	 
| 25> C 	 43.0107 	 14.1284 	 87.7986 	 
| 26> C 	 43.5865 	 13.8987 	 86.5179 	 
| 27> C 	 42.719 	 14.3009 	 85.4823 	 
| 28> H 	 43.4018 	 14.0207 	 88.7242 	 
| 29> C 	 44.9282 	 13.2268 	 86.4629 	 
| 30> H 	 45.2819 	 13.0129 	 85.4569 	 
| 31> H 	 44.8553 	 12.2182 	 86.9752 	 
| 32> C 	 46.1427 	 13.9429 	 87.0711 	 
| 33> H 	 47.0558 	 13.3604 	 86.9469 	 
| 34> H 	 46.0978 	 14.0966 	 88.2281 	 
| 35> C 	 46.3463 	 15.3549 	 86.5331 	 
| 36> H 	 45.3486 	 15.8539 	 86.444 	 
| 37> H 	 46.7344 	 15.423 	 85.5091 	 
| 38> H 	 46.8922 	 16.0104 	 87.1502 	 
| 39> H 	 43.3064 	 13.9161 	 80.5818 	 
| 40> H 	 41.1752 	 15.0298 	 88.6039 	 
| 41> *
| 42> 
| 43>                          ****END OF INPUT****
================================================================================

                       ****************************
                       * Single Point Calculation *
                       ****************************

---------------------------------
CARTESIAN COORDINATES (ANGSTROEM)
---------------------------------
  S     42.829100   13.196700   82.929700
  C     43.105300   14.342700   81.556300
  C     43.340300   15.619100   82.051300
  C     43.271300   15.694900   83.526800
  C     42.965000   14.499500   84.096100
  H     43.312000   16.589500   84.131700
  C     43.661500   16.838800   81.183700
  H     44.317000   16.542400   80.389600
  H     44.249300   17.434100   81.865400
  C     42.350400   17.437200   80.527800
  H     41.942700   16.571700   79.974200
  H     41.579600   17.844500   81.169300
  C     42.599100   18.575400   79.483500
  H     43.408000   19.241200   79.865400
  H     43.038300   18.069900   78.561400
  H     41.685500   19.064100   79.150700
  S     41.320300   15.182000   86.094400
  C     41.736700   14.681700   87.714000
  C     43.010700   14.128400   87.798600
  C     43.586500   13.898700   86.517900
  C     42.719000   14.300900   85.482300
  H     43.401800   14.020700   88.724200
  C     44.928200   13.226800   86.462900
  H     45.281900   13.012900   85.456900
  H     44.855300   12.218200   86.975200
  C     46.142700   13.942900   87.071100
  H     47.055800   13.360400   86.946900
  H     46.097800   14.096600   88.228100
  C     46.346300   15.354900   86.533100
  H     45.348600   15.853900   86.444000
  H     46.734400   15.423000   85.509100
  H     46.892200   16.010400   87.150200
  H     43.306400   13.916100   80.581800
  H     41.175200   15.029800   88.603900

----------------------------
CARTESIAN COORDINATES (A.U.)
----------------------------
  NO LB      ZA    FRAG     MASS         X           Y           Z
   0 S    16.0000    0    32.060   80.935270   24.938149  156.714421
   1 C     6.0000    0    12.011   81.457212   27.103775  154.119071
   2 C     6.0000    0    12.011   81.901298   29.515821  155.054486
   3 C     6.0000    0    12.011   81.770906   29.659063  157.842777
   4 C     6.0000    0    12.011   81.192083   27.400084  158.918598
   5 H     1.0000    0     1.008   81.847818   31.349612  158.985872
   6 C     6.0000    0    12.011   82.508278   31.820720  153.414960
   7 H     1.0000    0     1.008   83.746993   31.260606  151.914328
   8 H     1.0000    0     1.008   83.619059   32.945674  154.703186
   9 C     6.0000    0    12.011   80.030658   32.951533  152.175488
  10 H     1.0000    0     1.008   79.260216   31.315975  151.129336
  11 H     1.0000    0     1.008   78.574057   33.721218  153.387747
  12 C     6.0000    0    12.011   80.500633   35.102419  150.202047
  13 H     1.0000    0     1.008   82.029232   36.360598  150.923734
  14 H     1.0000    0     1.008   81.330600   34.147162  148.459531
  15 H     1.0000    0     1.008   78.774179   36.025928  149.573146
  16 S    16.0000    0    32.060   78.084051   28.689822  162.694838
  17 C     6.0000    0    12.011   78.870933   27.744392  165.755438
  18 C     6.0000    0    12.011   81.278444   26.698807  165.915309
  19 C     6.0000    0    12.011   82.366548   26.264737  163.495137
  20 C     6.0000    0    12.011   80.727211   27.024784  161.538136
  21 H     1.0000    0     1.008   82.017516   26.495283  167.664439
  22 C     6.0000    0    12.011   84.901994   24.995030  163.391202
  23 H     1.0000    0     1.008   85.570390   24.590817  161.490137
  24 H     1.0000    0     1.008   84.764233   23.089052  164.359308
  25 C     6.0000    0    12.011   87.197066   26.348263  164.540533
  26 H     1.0000    0     1.008   88.922575   25.247497  164.305829
  27 H     1.0000    0     1.008   87.112217   26.638713  166.726946
  28 C     6.0000    0    12.011   87.581814   29.016556  163.523861
  29 H     1.0000    0     1.008   85.696435   29.959529  163.355486
  30 H     1.0000    0     1.008   88.315217   29.145246  161.588781
  31 H     1.0000    0     1.008   88.613416   30.255271  164.690011
  32 H     1.0000    0     1.008   81.837236   26.297618  152.277533
  33 H     1.0000    0     1.008   77.809852   28.402206  167.437105

--------------------------------
INTERNAL COORDINATES (ANGSTROEM)
--------------------------------
 S      0   0   0     0.000000000000     0.00000000     0.00000000
 C      1   0   0     1.809925412828     0.00000000     0.00000000
 C      2   1   0     1.389045341233   109.70842039     0.00000000
 C      3   2   1     1.479056080749   113.24747638   358.71520150
 C      4   3   2     1.359008219254   112.54051430   358.79649169
 H      4   3   2     1.080680183958   126.80273254   187.08887697
 C      3   2   1     1.530871415240   124.44805317   177.83934007
 H      7   3   2     1.071507358817   109.14584468   320.40710063
 H      7   3   2     1.079169041439   101.29042608   208.09294519
 C      7   3   2     1.583436320159   111.23069253    79.10622912
 H     10   7   3     1.105342707037   102.53035672   303.02885811
 H     10   7   3     1.082380792513   119.10165870    63.64067777
 C     10   7   3     1.564580908742   114.82109961   187.27023161
 H     13  10   7     1.115103788891   108.72790953   319.29768380
 H     13  10   7     1.139603132674   106.17913562    72.05631952
 H     13  10   7     1.088231818134   113.41373059   188.03328119
 S      5   4   3     2.676573785645   103.11782894   218.95143939
 C     17   5   4     1.745506576900   118.23329751   236.01062289
 C     18  17   5     1.391536578750   112.87876015     8.64530885
 C     19  18  17     1.422849331447   112.33165452   350.31535114
 C     20  19  18     1.409534834617   111.48042551     0.41435511
 H     19  18  17     1.010590846980   116.89590397   165.87521145
 C     20  19  18     1.501543705658   117.82739532   183.62160245
 H     23  20  19     1.087608799155   114.36036768   175.70959556
 H     23  20  19     1.133595898017   108.91202227    58.23192793
 C     23  20  19     1.535485818886   118.91818687   295.84538110
 H     26  23  20     1.090175903238   111.60262471   181.22168149
 H     26  23  20     1.168027696589   115.04439752    65.07386979
 C     26  23  20     1.524677329798   113.43794613   306.21649149
 H     29  26  23     1.119082257924   108.78331698    40.87341912
 H     29  26  23     1.097194248982   115.72403632   286.41567267
 H     29  26  23     1.052853014433   116.04016639   156.85599897
 H      2   1   3     1.082625983431   117.50840353   165.17482688
 H     18  17   5     1.108322096685   122.28492658   172.33790289

---------------------------
INTERNAL COORDINATES (A.U.)
---------------------------
 S      0   0   0     0.000000000000     0.00000000     0.00000000
 C      1   0   0     3.420263353069     0.00000000     0.00000000
 C      2   1   0     2.624915282529   109.70842039     0.00000000
 C      3   2   1     2.795010929326   113.24747638   358.71520150
 C      4   3   2     2.568153348138   112.54051430   358.79649169
 H      4   3   2     2.042189586037   126.80273254   187.08887697
 C      3   2   1     2.892927721053   124.44805317   177.83934007
 H      7   3   2     2.024855458646   109.14584468   320.40710063
 H      7   3   2     2.039333940526   101.29042608   208.09294519
 C      7   3   2     2.992260995605   111.23069253    79.10622912
 H     10   7   3     2.088795000427   102.53035672   303.02885811
 H     10   7   3     2.045403270465   119.10165870    63.64067777
 C     10   7   3     2.956629431884   114.82109961   187.27023161
 H     13  10   7     2.107240771903   108.72790953   319.29768380
 H     13  10   7     2.153537822112   106.17913562    72.05631952
 H     13  10   7     2.056460106493   113.41373059   188.03328119
 S      5   4   3     5.057991432101   103.11782894   218.95143939
 C     17   5   4     3.298529395299   118.23329751   236.01062289
 C     18  17   5     2.629623039172   112.87876015     8.64530885
 C     19  18  17     2.688795566268   112.33165452   350.31535114
 C     20  19  18     2.663634813649   111.48042551     0.41435511
 H     19  18  17     1.909739934240   116.89590397   165.87521145
 C     20  19  18     2.837506381806   117.82739532   183.62160245
 H     23  20  19     2.055282771246   114.36036768   175.70959556
 H     23  20  19     2.142185793788   108.91202227    58.23192793
 C     23  20  19     2.901647680214   118.91818687   295.84538110
 H     26  23  20     2.060133894919   111.60262471   181.22168149
 H     26  23  20     2.207252463389   115.04439752    65.07386979
 C     26  23  20     2.881222595917   113.43794613   306.21649149
 H     29  26  23     2.114758988806   108.78331698    40.87341912
 H     29  26  23     2.073396646290   115.72403632   286.41567267
 H     29  26  23     1.989603856551   116.04016639   156.85599897
 H      2   1   3     2.045866614152   117.50840353   165.17482688
 H     18  17   5     2.094425230908   122.28492658   172.33790289

---------------------
BASIS SET INFORMATION
---------------------
There are 3 groups of distinct atoms

 Group   1 Type S   : 10s7p1d contracted to 4s3p1d pattern {5311/511/1}
 Group   2 Type C   : 7s4p1d contracted to 3s2p1d pattern {511/31/1}
 Group   3 Type H   : 4s1p contracted to 2s1p pattern {31/1}

Atom   0S    basis set group =>   1
Atom   1C    basis set group =>   2
Atom   2C    basis set group =>   2
Atom   3C    basis set group =>   2
Atom   4C    basis set group =>   2
Atom   5H    basis set group =>   3
Atom   6C    basis set group =>   2
Atom   7H    basis set group =>   3
Atom   8H    basis set group =>   3
Atom   9C    basis set group =>   2
Atom  10H    basis set group =>   3
Atom  11H    basis set group =>   3
Atom  12C    basis set group =>   2
Atom  13H    basis set group =>   3
Atom  14H    basis set group =>   3
Atom  15H    basis set group =>   3
Atom  16S    basis set group =>   1
Atom  17C    basis set group =>   2
Atom  18C    basis set group =>   2
Atom  19C    basis set group =>   2
Atom  20C    basis set group =>   2
Atom  21H    basis set group =>   3
Atom  22C    basis set group =>   2
Atom  23H    basis set group =>   3
Atom  24H    basis set group =>   3
Atom  25C    basis set group =>   2
Atom  26H    basis set group =>   3
Atom  27H    basis set group =>   3
Atom  28C    basis set group =>   2
Atom  29H    basis set group =>   3
Atom  30H    basis set group =>   3
Atom  31H    basis set group =>   3
Atom  32H    basis set group =>   3
Atom  33H    basis set group =>   3


           ************************************************************
           *        Program running with 16 parallel MPI-processes    *
           *              working on a common directory               *
           ************************************************************
------------------------------------------------------------------------------
                           ORCA GTO INTEGRAL CALCULATION
------------------------------------------------------------------------------

                         BASIS SET STATISTICS AND STARTUP INFO

 # of primitive gaussian shells          ...  294
 # of primitive gaussian functions       ...  534
 # of contracted shells                  ...  154
 # of contracted basis functions         ...  322
 Highest angular momentum                ...    2
 Maximum contraction depth               ...    5
 Integral package used                   ... LIBINT
 Integral threshhold            Thresh   ...  1.000e-10
 Primitive cut-off              TCut     ...  1.000e-11


------------------------------ INTEGRAL EVALUATION ----------------------------


 * One electron integrals 
 Pre-screening matrix                    ... done
 Shell pair data                         ... done (   0.003 sec)



           ************************************************************
           *        Program running with 16 parallel MPI-processes    *
           *              working on a common directory               *
           ************************************************************
-------------------------------------------------------------------------------
                                 ORCA SCF
-------------------------------------------------------------------------------

------------
SCF SETTINGS
------------
Hamiltonian:
 Density Functional     Method          .... DFT(GTOs)
 Exchange Functional    Exchange        .... WB97X-D3
 Correlation Functional Correlation     .... WB97X-D3
 Gradients option       PostSCFGGA      .... off
 Hybrid DFT is turned on
   Fraction HF Exchange ScalHFX         ....  0.195728
   Scaling of DF-GGA-X  ScalDFX         ....  0.000000
   Scaling of DF-GGA-C  ScalDFC         ....  1.000000
   Scaling of DF-LDA-C  ScalLDAC        ....  1.000000
   Perturbative correction              ....  0.000000
   Density functional embedding theory  .... OFF
 Long-range corrected/Screened/Range-Separated Hybrid DFT is turned on
   Amount of maximum screened exact exchange              ....  0.804272
   Range separation parameter mu (erf(mu*r12)/r12)        ....  0.250000


General Settings:
 Integral files         IntName         .... config_3061
 Hartree-Fock type      HFTyp           .... RHF
 Total Charge           Charge          ....    0
 Multiplicity           Mult            ....    1
 Number of Electrons    NEL             ....  134
 Basis Dimension        Dim             ....  322
 Nuclear Repulsion      ENuc            ....   1277.2147533950 Eh

Convergence Acceleration:
 DIIS                   CNVDIIS         .... on
   Start iteration      DIISMaxIt       ....    12
   Startup error        DIISStart       ....  0.200000
   # of expansion vecs  DIISMaxEq       ....     5
   Bias factor          DIISBfac        ....   1.050
   Max. coefficient     DIISMaxC        ....  10.000
 Newton-Raphson         CNVNR           .... off
 SOSCF                  CNVSOSCF        .... on
   Start iteration      SOSCFMaxIt      ....   150
   Startup grad/error   SOSCFStart      ....  0.003300
 Level Shifting         CNVShift        .... on
   Level shift para.    LevelShift      ....    0.2500
   Turn off err/grad.   ShiftErr        ....    0.0010
 Zerner damping         CNVZerner       .... off
 Static damping         CNVDamp         .... on
   Fraction old density DampFac         ....    0.7000
   Max. Damping (<1)    DampMax         ....    0.9800
   Min. Damping (>=0)   DampMin         ....    0.0000
   Turn off err/grad.   DampErr         ....    0.1000
 Fernandez-Rico         CNVRico         .... off

SCF Procedure:
 Maximum # iterations   MaxIter         ....   125
 SCF integral mode      SCFMode         .... Direct
   Integral package                     .... LIBINT
 Reset frequency        DirectResetFreq ....    20
 Integral Threshold     Thresh          ....  1.000e-10 Eh
 Primitive CutOff       TCut            ....  1.000e-11 Eh

Convergence Tolerance:
 Convergence Check Mode ConvCheckMode   .... Total+1el-Energy
 Convergence forced     ConvForced      .... 0
 Energy Change          TolE            ....  1.000e-06 Eh
 1-El. energy change                    ....  1.000e-03 Eh
 Orbital Gradient       TolG            ....  5.000e-05
 Orbital Rotation angle TolX            ....  5.000e-05
 DIIS Error             TolErr          ....  1.000e-06


Diagonalization of the overlap matrix:
Smallest eigenvalue                        ... 7.436e-04
Time for diagonalization                   ...    0.016 sec
Threshold for overlap eigenvalues          ... 1.000e-08
Number of eigenvalues below threshold      ... 0
Time for construction of square roots      ...    0.027 sec
Total time needed                          ...    0.044 sec

-------------------
DFT GRID GENERATION
-------------------

General Integration Accuracy     IntAcc      ...  4.340
Radial Grid Type                 RadialGrid  ... Gauss-Chebyshev
Angular Grid (max. acc.)         AngularGrid ... Lebedev-110
Angular grid pruning method      GridPruning ... 3 (G Style)
Weight generation scheme         WeightScheme... Becke
Basis function cutoff            BFCut       ...    1.0000e-10
Integration weight cutoff        WCut        ...    1.0000e-14
Grids for H and He will be reduced by one unit

# of grid points (after initial pruning)     ...  41088 (   0.0 sec)
# of grid points (after weights+screening)   ...  37010 (   0.0 sec)
nearest neighbour list constructed           ...    0.0 sec
Grid point re-assignment to atoms done       ...    0.0 sec
Grid point division into batches done        ...    0.0 sec
Reduced shell lists constructed in    0.1 sec

Total number of grid points                  ...    37010
Total number of batches                      ...      594
Average number of points per batch           ...       62
Average number of grid points per atom       ...     1089
Average number of shells per batch           ...    76.82 (49.88%)
Average number of basis functions per batch  ...   151.54 (47.06%)
Average number of large shells per batch     ...    49.00 (63.79%)
Average number of large basis fcns per batch ...    99.97 (65.97%)
Maximum spatial batch extension              ...  16.58, 16.24, 14.65 au
Average spatial batch extension              ...   0.22,  0.21,  0.20 au

Time for grid setup =    0.186 sec

------------------------------
INITIAL GUESS: MODEL POTENTIAL
------------------------------
Loading Hartree-Fock densities                     ... done
Calculating cut-offs                               ... done
Setting up the integral package                    ... done
Initializing the effective Hamiltonian             ... done
Starting the Coulomb interaction                   ... done (   0.0 sec)
Reading the grid                                   ... done
Mapping shells                                     ... done
Starting the XC term evaluation                    ... done (   0.0 sec)
  promolecular density results
     # of electrons  =    134.000403026
     EX              =   -126.667320411
     EC              =     -4.609087665
     EX+EC           =   -131.276408075
Transforming the Hamiltonian                       ... done (   0.0 sec)
Diagonalizing the Hamiltonian                      ... done (   0.0 sec)
Back transforming the eigenvectors                 ... done (   0.0 sec)
Now organizing SCF variables                       ... done
                      ------------------
                      INITIAL GUESS DONE (   0.4 sec)
                      ------------------
--------------
SCF ITERATIONS
--------------
ITER       Energy         Delta-E        Max-DP      RMS-DP      [F,P]     Damp
               ***  Starting incremental Fock matrix formation  ***
  0  -1339.4310079908   0.000000000000 0.06655789  0.00151563  0.1607001 0.7000
  1  -1339.6095500249  -0.178542034135 0.04438617  0.00111792  0.0964222 0.7000
                               ***Turning on DIIS***
  2  -1339.6973557279  -0.087805702922 0.08997191  0.00214506  0.0498455 0.0000
  3  -1339.8302918947  -0.132936166830 0.04618278  0.00092404  0.0406020 0.0000
  4  -1339.8581432291  -0.027851334379 0.00709600  0.00019940  0.0071467 0.0000
                      *** Initiating the SOSCF procedure ***
                           *** Shutting down DIIS ***
                      *** Re-Reading the Fockian *** 
                      *** Removing any level shift *** 
ITER      Energy       Delta-E        Grad      Rot      Max-DP    RMS-DP
  5  -1339.85906172  -0.0009184916  0.001545  0.001545  0.003762  0.000103
               *** Restarting incremental Fock matrix formation ***
  6  -1339.85924736  -0.0001856422  0.001322  0.003550  0.003174  0.000065
  7  -1339.85931269  -0.0000653290  0.000663  0.004039  0.004002  0.000067
  8  -1339.85933198  -0.0000192914  0.000243  0.000476  0.000602  0.000019
  9  -1339.85933574  -0.0000037611  0.000102  0.000349  0.000220  0.000007
                 **** Energy Check signals convergence ****
              ***Rediagonalizing the Fockian in SOSCF/NRSCF***

               *****************************************************
               *                     SUCCESS                       *
               *           SCF CONVERGED AFTER  10 CYCLES          *
               *****************************************************

Setting up the final grid:

General Integration Accuracy     IntAcc      ...  4.670
Radial Grid Type                 RadialGrid  ... Gauss-Chebyshev
Angular Grid (max. acc.)         AngularGrid ... Lebedev-302
Angular grid pruning method      GridPruning ... 3 (G Style)
Weight generation scheme         WeightScheme... Becke
Basis function cutoff            BFCut       ...    1.0000e-10
Integration weight cutoff        WCut        ...    1.0000e-14
Grids for H and He will be reduced by one unit

# of grid points (after initial pruning)     ... 161752 (   0.0 sec)
# of grid points (after weights+screening)   ... 143009 (   0.1 sec)
nearest neighbour list constructed           ...    0.0 sec
Grid point re-assignment to atoms done       ...    0.0 sec
Grid point division into batches done        ...    0.5 sec
Reduced shell lists constructed in    0.6 sec

Total number of grid points                  ...   143009
Total number of batches                      ...     2253
Average number of points per batch           ...       63
Average number of grid points per atom       ...     4206
Average number of shells per batch           ...    70.85 (46.00%)
Average number of basis functions per batch  ...   138.94 (43.15%)
Average number of large shells per batch     ...    43.41 (61.27%)
Average number of large basis fcns per batch ...    88.45 (63.66%)
Maximum spatial batch extension              ...  15.71, 11.72, 13.56 au
Average spatial batch extension              ...   0.15,  0.14,  0.15 au

Final grid set up in    1.0 sec
Final integration                            ... done (   0.3 sec)
Change in XC energy                          ...     0.007352405
Integrated number of electrons               ...   133.999817947
Previous integrated no of electrons          ...   134.004516627

----------------
TOTAL SCF ENERGY
----------------

Total Energy       :        -1339.85198358 Eh          -36459.22602 eV

Components:
Nuclear Repulsion  :         1277.21475340 Eh           34754.78034 eV
Electronic Energy  :        -2617.06673698 Eh          -71214.00636 eV
One Electron Energy:        -4371.22528334 Eh         -118947.08711 eV
Two Electron Energy:         1754.15854637 Eh           47733.08075 eV

Virial components:
Potential Energy   :        -2671.06952417 Eh          -72683.49691 eV
Kinetic Energy     :         1331.21754059 Eh           36224.27089 eV
Virial Ratio       :            2.00648612


DFT components:
N(Alpha)           :       66.999908973727 electrons
N(Beta)            :       66.999908973727 electrons
N(Total)           :      133.999817947454 electrons
E(XC)              :      -94.189161543789 Eh       
DFET-embed. en.    :        0.000000000000 Eh       

---------------
SCF CONVERGENCE
---------------

  Last Energy change         ...   -2.4250e-07  Tolerance :   1.0000e-06
  Last MAX-Density change    ...    1.1545e-04  Tolerance :   1.0000e-05
  Last RMS-Density change    ...    3.0233e-06  Tolerance :   1.0000e-06
  Last Orbital Gradient      ...    7.5557e-05  Tolerance :   5.0000e-05
  Last Orbital Rotation      ...    1.7858e-04  Tolerance :   5.0000e-05

             **** THE GBW FILE WAS UPDATED (config_3061.gbw) ****
             **** DENSITY FILE WAS UPDATED (config_3061.scfp) ****
             **** ENERGY FILE WAS UPDATED (config_3061.en.tmp) ****
             **** THE GBW FILE WAS UPDATED (config_3061.gbw) ****
             **** DENSITY FILE WAS UPDATED (config_3061.scfp) ****
----------------
ORBITAL ENERGIES
----------------

  NO   OCC          E(Eh)            E(eV) 
   0   2.0000     -88.968401     -2420.9533 
   1   2.0000     -88.960457     -2420.7371 
   2   2.0000     -10.325313      -280.9661 
   3   2.0000     -10.323967      -280.9294 
   4   2.0000     -10.319796      -280.8159 
   5   2.0000     -10.317879      -280.7638 
   6   2.0000     -10.309872      -280.5459 
   7   2.0000     -10.308755      -280.5155 
   8   2.0000     -10.295991      -280.1681 
   9   2.0000     -10.295630      -280.1583 
  10   2.0000     -10.295071      -280.1431 
  11   2.0000     -10.294572      -280.1295 
  12   2.0000     -10.292166      -280.0641 
  13   2.0000     -10.287811      -279.9456 
  14   2.0000     -10.285498      -279.8826 
  15   2.0000     -10.270675      -279.4793 
  16   2.0000      -8.082968      -219.9487 
  17   2.0000      -8.074586      -219.7206 
  18   2.0000      -6.041361      -164.3938 
  19   2.0000      -6.037633      -164.2923 
  20   2.0000      -6.033723      -164.1859 
  21   2.0000      -6.033247      -164.1730 
  22   2.0000      -6.029171      -164.0621 
  23   2.0000      -6.025231      -163.9549 
  24   2.0000      -1.005400       -27.3583 
  25   2.0000      -0.976370       -26.5684 
  26   2.0000      -0.909478       -24.7482 
  27   2.0000      -0.903974       -24.5984 
  28   2.0000      -0.869320       -23.6554 
  29   2.0000      -0.849467       -23.1152 
  30   2.0000      -0.840851       -22.8807 
  31   2.0000      -0.811999       -22.0956 
  32   2.0000      -0.783869       -21.3302 
  33   2.0000      -0.768344       -20.9077 
  34   2.0000      -0.706721       -19.2309 
  35   2.0000      -0.697705       -18.9855 
  36   2.0000      -0.687014       -18.6946 
  37   2.0000      -0.664261       -18.0755 
  38   2.0000      -0.644768       -17.5450 
  39   2.0000      -0.615719       -16.7546 
  40   2.0000      -0.597592       -16.2613 
  41   2.0000      -0.561957       -15.2916 
  42   2.0000      -0.559855       -15.2344 
  43   2.0000      -0.551515       -15.0075 
  44   2.0000      -0.540220       -14.7001 
  45   2.0000      -0.527104       -14.3432 
  46   2.0000      -0.517152       -14.0724 
  47   2.0000      -0.512073       -13.9342 
  48   2.0000      -0.504132       -13.7181 
  49   2.0000      -0.497610       -13.5407 
  50   2.0000      -0.489587       -13.3223 
  51   2.0000      -0.473920       -12.8960 
  52   2.0000      -0.469310       -12.7706 
  53   2.0000      -0.457735       -12.4556 
  54   2.0000      -0.457467       -12.4483 
  55   2.0000      -0.446985       -12.1631 
  56   2.0000      -0.439530       -11.9602 
  57   2.0000      -0.437372       -11.9015 
  58   2.0000      -0.433363       -11.7924 
  59   2.0000      -0.425036       -11.5658 
  60   2.0000      -0.419383       -11.4120 
  61   2.0000      -0.412261       -11.2182 
  62   2.0000      -0.407909       -11.0998 
  63   2.0000      -0.335660        -9.1338 
  64   2.0000      -0.330282        -8.9874 
  65   2.0000      -0.324385        -8.8270 
  66   2.0000      -0.304048        -8.2736 
  67   0.0000       0.036789         1.0011 
  68   0.0000       0.055482         1.5098 
  69   0.0000       0.100710         2.7405 
  70   0.0000       0.114421         3.1136 
  71   0.0000       0.123644         3.3645 
  72   0.0000       0.135704         3.6927 
  73   0.0000       0.147857         4.0234 
  74   0.0000       0.153025         4.1640 
  75   0.0000       0.164830         4.4852 
  76   0.0000       0.172592         4.6965 
  77   0.0000       0.177438         4.8283 
  78   0.0000       0.186412         5.0725 
  79   0.0000       0.196070         5.3353 
  80   0.0000       0.199650         5.4328 
  81   0.0000       0.206853         5.6288 
  82   0.0000       0.214732         5.8431 
  83   0.0000       0.216569         5.8931 
  84   0.0000       0.222257         6.0479 
  85   0.0000       0.227434         6.1888 
  86   0.0000       0.229950         6.2573 
  87   0.0000       0.235853         6.4179 
  88   0.0000       0.239284         6.5113 
  89   0.0000       0.247074         6.7232 
  90   0.0000       0.256754         6.9866 
  91   0.0000       0.264893         7.2081 
  92   0.0000       0.270682         7.3656 
  93   0.0000       0.296334         8.0637 
  94   0.0000       0.303044         8.2462 
  95   0.0000       0.309691         8.4271 
  96   0.0000       0.316842         8.6217 
  97   0.0000       0.324094         8.8190 
  98   0.0000       0.348029         9.4704 
  99   0.0000       0.359849         9.7920 
 100   0.0000       0.380873        10.3641 
 101   0.0000       0.385777        10.4975 
 102   0.0000       0.414336        11.2746 
 103   0.0000       0.418773        11.3954 
 104   0.0000       0.432124        11.7587 
 105   0.0000       0.445495        12.1225 
 106   0.0000       0.459674        12.5084 
 107   0.0000       0.476776        12.9737 
 108   0.0000       0.486087        13.2271 
 109   0.0000       0.489420        13.3178 
 110   0.0000       0.497037        13.5251 
 111   0.0000       0.506871        13.7927 
 112   0.0000       0.513384        13.9699 
 113   0.0000       0.517821        14.0906 
 114   0.0000       0.535338        14.5673 
 115   0.0000       0.542379        14.7589 
 116   0.0000       0.547191        14.8898 
 117   0.0000       0.553238        15.0544 
 118   0.0000       0.558428        15.1956 
 119   0.0000       0.561317        15.2742 
 120   0.0000       0.583640        15.8817 
 121   0.0000       0.608632        16.5617 
 122   0.0000       0.609469        16.5845 
 123   0.0000       0.614845        16.7308 
 124   0.0000       0.622564        16.9408 
 125   0.0000       0.630591        17.1593 
 126   0.0000       0.640575        17.4309 
 127   0.0000       0.648987        17.6598 
 128   0.0000       0.649952        17.6861 
 129   0.0000       0.667895        18.1744 
 130   0.0000       0.671120        18.2621 
 131   0.0000       0.677722        18.4418 
 132   0.0000       0.688536        18.7360 
 133   0.0000       0.695823        18.9343 
 134   0.0000       0.703209        19.1353 
 135   0.0000       0.706700        19.2303 
 136   0.0000       0.715246        19.4628 
 137   0.0000       0.720684        19.6108 
 138   0.0000       0.726629        19.7726 
 139   0.0000       0.732253        19.9256 
 140   0.0000       0.740356        20.1461 
 141   0.0000       0.741974        20.1901 
 142   0.0000       0.751596        20.4520 
 143   0.0000       0.755405        20.5556 
 144   0.0000       0.756444        20.5839 
 145   0.0000       0.760312        20.6892 
 146   0.0000       0.767271        20.8785 
 147   0.0000       0.772738        21.0273 
 148   0.0000       0.776099        21.1187 
 149   0.0000       0.784031        21.3346 
 150   0.0000       0.787210        21.4211 
 151   0.0000       0.789735        21.4898 
 152   0.0000       0.793565        21.5940 
 153   0.0000       0.796648        21.6779 
 154   0.0000       0.800555        21.7842 
 155   0.0000       0.804147        21.8820 
 156   0.0000       0.805338        21.9144 
 157   0.0000       0.814752        22.1705 
 158   0.0000       0.815464        22.1899 
 159   0.0000       0.820945        22.3390 
 160   0.0000       0.822282        22.3754 
 161   0.0000       0.828494        22.5445 
 162   0.0000       0.831936        22.6381 
 163   0.0000       0.844591        22.9825 
 164   0.0000       0.853244        23.2180 
 165   0.0000       0.857602        23.3365 
 166   0.0000       0.870411        23.6851 
 167   0.0000       0.874762        23.8035 
 168   0.0000       0.880517        23.9601 
 169   0.0000       0.899899        24.4875 
 170   0.0000       0.905366        24.6363 
 171   0.0000       0.907878        24.7046 
 172   0.0000       0.926444        25.2098 
 173   0.0000       0.933706        25.4074 
 174   0.0000       0.947631        25.7864 
 175   0.0000       0.965795        26.2806 
 176   0.0000       0.976595        26.5745 
 177   0.0000       0.983559        26.7640 
 178   0.0000       1.005019        27.3479 
 179   0.0000       1.028651        27.9910 
 180   0.0000       1.036585        28.2069 
 181   0.0000       1.050265        28.5792 
 182   0.0000       1.085405        29.5354 
 183   0.0000       1.089345        29.6426 
 184   0.0000       1.096076        29.8257 
 185   0.0000       1.126477        30.6530 
 186   0.0000       1.143318        31.1113 
 187   0.0000       1.164832        31.6967 
 188   0.0000       1.176163        32.0050 
 189   0.0000       1.186100        32.2754 
 190   0.0000       1.201197        32.6862 
 191   0.0000       1.231088        33.4996 
 192   0.0000       1.236256        33.6402 
 193   0.0000       1.255813        34.1724 
 194   0.0000       1.276097        34.7244 
 195   0.0000       1.294684        35.2302 
 196   0.0000       1.311809        35.6961 
 197   0.0000       1.318111        35.8676 
 198   0.0000       1.351147        36.7666 
 199   0.0000       1.365524        37.1578 
 200   0.0000       1.375675        37.4340 
 201   0.0000       1.401208        38.1288 
 202   0.0000       1.409981        38.3675 
 203   0.0000       1.449684        39.4479 
 204   0.0000       1.463942        39.8359 
 205   0.0000       1.474511        40.1235 
 206   0.0000       1.494301        40.6620 
 207   0.0000       1.506041        40.9815 
 208   0.0000       1.537248        41.8307 
 209   0.0000       1.548223        42.1293 
 210   0.0000       1.580673        43.0123 
 211   0.0000       1.612441        43.8767 
 212   0.0000       1.623068        44.1659 
 213   0.0000       1.625579        44.2343 
 214   0.0000       1.659885        45.1678 
 215   0.0000       1.679753        45.7084 
 216   0.0000       1.685900        45.8757 
 217   0.0000       1.689959        45.9861 
 218   0.0000       1.736904        47.2636 
 219   0.0000       1.773404        48.2568 
 220   0.0000       1.778610        48.3984 
 221   0.0000       1.793990        48.8169 
 222   0.0000       1.796326        48.8805 
 223   0.0000       1.807993        49.1980 
 224   0.0000       1.811800        49.3016 
 225   0.0000       1.820885        49.5488 
 226   0.0000       1.830595        49.8130 
 227   0.0000       1.834955        49.9317 
 228   0.0000       1.854505        50.4636 
 229   0.0000       1.857506        50.5453 
 230   0.0000       1.865042        50.7504 
 231   0.0000       1.866454        50.7888 
 232   0.0000       1.871060        50.9141 
 233   0.0000       1.878707        51.1222 
 234   0.0000       1.885086        51.2958 
 235   0.0000       1.893522        51.5254 
 236   0.0000       1.901637        51.7462 
 237   0.0000       1.918637        52.2088 
 238   0.0000       1.930879        52.5419 
 239   0.0000       1.938097        52.7383 
 240   0.0000       1.948175        53.0125 
 241   0.0000       1.950280        53.0698 
 242   0.0000       1.966349        53.5071 
 243   0.0000       1.967331        53.5338 
 244   0.0000       1.971766        53.6545 
 245   0.0000       1.985319        54.0233 
 246   0.0000       1.994711        54.2788 
 247   0.0000       1.998277        54.3759 
 248   0.0000       2.004835        54.5543 
 249   0.0000       2.021803        55.0161 
 250   0.0000       2.030280        55.2467 
 251   0.0000       2.034105        55.3508 
 252   0.0000       2.054542        55.9069 
 253   0.0000       2.069589        56.3164 
 254   0.0000       2.080745        56.6200 
 255   0.0000       2.088623        56.8343 
 256   0.0000       2.117098        57.6092 
 257   0.0000       2.125649        57.8418 
 258   0.0000       2.143562        58.3293 
 259   0.0000       2.154829        58.6359 
 260   0.0000       2.164247        58.8921 
 261   0.0000       2.187509        59.5251 
 262   0.0000       2.202981        59.9462 
 263   0.0000       2.206103        60.0311 
 264   0.0000       2.208061        60.0844 
 265   0.0000       2.237150        60.8759 
 266   0.0000       2.245604        61.1060 
 267   0.0000       2.267159        61.6925 
 268   0.0000       2.281738        62.0893 
 269   0.0000       2.306786        62.7709 
 270   0.0000       2.310240        62.8648 
 271   0.0000       2.326853        63.3169 
 272   0.0000       2.357461        64.1498 
 273   0.0000       2.391200        65.0679 
 274   0.0000       2.401827        65.3570 
 275   0.0000       2.421470        65.8915 
 276   0.0000       2.441380        66.4333 
 277   0.0000       2.455560        66.8192 
 278   0.0000       2.461411        66.9784 
 279   0.0000       2.467569        67.1460 
 280   0.0000       2.478123        67.4331 
 281   0.0000       2.498341        67.9833 
 282   0.0000       2.504563        68.1526 
 283   0.0000       2.519103        68.5483 
 284   0.0000       2.523377        68.6646 
 285   0.0000       2.540624        69.1339 
 286   0.0000       2.567395        69.8624 
 287   0.0000       2.574834        70.0648 
 288   0.0000       2.586930        70.3939 
 289   0.0000       2.609290        71.0024 
 290   0.0000       2.636693        71.7481 
 291   0.0000       2.653752        72.2123 
 292   0.0000       2.666804        72.5674 
 293   0.0000       2.684663        73.0534 
 294   0.0000       2.712297        73.8053 
 295   0.0000       2.720518        74.0291 
 296   0.0000       2.734649        74.4136 
 297   0.0000       2.767088        75.2963 
 298   0.0000       2.797833        76.1329 
 299   0.0000       2.807979        76.4090 
 300   0.0000       2.850958        77.5785 
 301   0.0000       2.856140        77.7195 
 302   0.0000       2.862571        77.8945 
 303   0.0000       2.878975        78.3409 
 304   0.0000       2.959241        80.5250 
 305   0.0000       2.968322        80.7722 
 306   0.0000       2.977817        81.0305 
 307   0.0000       2.986574        81.2688 
 308   0.0000       3.006932        81.8228 
 309   0.0000       3.044054        82.8329 
 310   0.0000       3.052191        83.0543 
 311   0.0000       3.077384        83.7399 
 312   0.0000       3.095234        84.2256 
 313   0.0000       3.108647        84.5906 
 314   0.0000       3.119425        84.8839 
 315   0.0000       3.156826        85.9016 
 316   0.0000       3.170254        86.2670 
 317   0.0000       3.192755        86.8793 
 318   0.0000       3.208229        87.3004 
 319   0.0000       3.259486        88.6951 
 320   0.0000       3.381704        92.0209 
 321   0.0000       3.483541        94.7920 

                    ********************************
                    * MULLIKEN POPULATION ANALYSIS *
                    ********************************

-----------------------
MULLIKEN ATOMIC CHARGES
-----------------------
   0 S :    0.088234
   1 C :   -0.133964
   2 C :   -0.102049
   3 C :    0.035040
   4 C :   -0.161046
   5 H :    0.018488
   6 C :    0.091428
   7 H :    0.019631
   8 H :    0.020786
   9 C :   -0.085476
  10 H :    0.034362
  11 H :    0.039133
  12 C :   -0.074354
  13 H :    0.043316
  14 H :    0.029245
  15 H :    0.046971
  16 S :    0.114397
  17 C :   -0.102259
  18 C :    0.002898
  19 C :    0.004591
  20 C :   -0.174360
  21 H :   -0.020055
  22 C :    0.069461
  23 H :    0.023967
  24 H :    0.050313
  25 C :   -0.107846
  26 H :    0.036617
  27 H :    0.032443
  28 C :   -0.050542
  29 H :    0.030489
  30 H :    0.030584
  31 H :    0.022217
  32 H :    0.058903
  33 H :    0.068435
Sum of atomic charges:   -0.0000000

--------------------------------
MULLIKEN REDUCED ORBITAL CHARGES
--------------------------------
  0 S s       :     5.853763  s :     5.853763
      pz      :     2.955194  p :     9.960351
      px      :     3.688923
      py      :     3.316234
      dz2     :     0.012923  d :     0.097652
      dxz     :     0.019146
      dyz     :     0.044213
      dx2y2   :     0.011935
      dxy     :     0.009435
  1 C s       :     3.209302  s :     3.209302
      pz      :     0.867780  p :     2.892868
      px      :     1.114953
      py      :     0.910135
      dz2     :     0.005554  d :     0.031794
      dxz     :     0.003003
      dyz     :     0.012599
      dx2y2   :     0.004239
      dxy     :     0.006398
  2 C s       :     3.103430  s :     3.103430
      pz      :     0.989225  p :     2.956605
      px      :     0.990118
      py      :     0.977262
      dz2     :     0.010989  d :     0.042014
      dxz     :     0.006427
      dyz     :     0.010809
      dx2y2   :     0.006201
      dxy     :     0.007588
  3 C s       :     3.185677  s :     3.185677
      pz      :     0.875244  p :     2.745924
      px      :     1.018009
      py      :     0.852671
      dz2     :     0.008368  d :     0.033358
      dxz     :     0.004845
      dyz     :     0.010652
      dx2y2   :     0.004661
      dxy     :     0.004832
  4 C s       :     3.071275  s :     3.071275
      pz      :     0.995039  p :     3.041714
      px      :     1.067616
      py      :     0.979059
      dz2     :     0.010383  d :     0.048057
      dxz     :     0.006535
      dyz     :     0.017089
      dx2y2   :     0.005618
      dxy     :     0.008431
  5 H s       :     0.957365  s :     0.957365
      pz      :     0.007169  p :     0.024147
      px      :     0.005260
      py      :     0.011719
  6 C s       :     2.955390  s :     2.955390
      pz      :     0.949064  p :     2.919135
      px      :     0.999055
      py      :     0.971016
      dz2     :     0.002860  d :     0.034047
      dxz     :     0.010673
      dyz     :     0.008328
      dx2y2   :     0.005267
      dxy     :     0.006919
  7 H s       :     0.956789  s :     0.956789
      pz      :     0.010176  p :     0.023580
      px      :     0.008132
      py      :     0.005272
  8 H s       :     0.954964  s :     0.954964
      pz      :     0.009170  p :     0.024250
      px      :     0.007156
      py      :     0.007924
  9 C s       :     3.084203  s :     3.084203
      pz      :     1.005517  p :     2.966957
      px      :     0.985877
      py      :     0.975563
      dz2     :     0.003630  d :     0.034317
      dxz     :     0.008197
      dyz     :     0.009133
      dx2y2   :     0.006131
      dxy     :     0.007225
 10 H s       :     0.943647  s :     0.943647
      pz      :     0.006464  p :     0.021991
      px      :     0.005365
      py      :     0.010163
 11 H s       :     0.937936  s :     0.937936
      pz      :     0.007765  p :     0.022931
      px      :     0.008850
      py      :     0.006315
 12 C s       :     3.055643  s :     3.055643
      pz      :     0.993092  p :     2.992144
      px      :     1.001138
      py      :     0.997913
      dz2     :     0.004743  d :     0.026567
      dxz     :     0.005101
      dyz     :     0.006785
      dx2y2   :     0.002897
      dxy     :     0.007041
 13 H s       :     0.934474  s :     0.934474
      pz      :     0.005605  p :     0.022210
      px      :     0.009195
      py      :     0.007410
 14 H s       :     0.949065  s :     0.949065
      pz      :     0.009929  p :     0.021689
      px      :     0.005793
      py      :     0.005968
 15 H s       :     0.929795  s :     0.929795
      pz      :     0.005550  p :     0.023234
      px      :     0.011366
      py      :     0.006318
 16 S s       :     5.849966  s :     5.849966
      pz      :     3.034178  p :     9.928821
      px      :     3.394185
      py      :     3.500458
      dz2     :     0.029048  d :     0.106816
      dxz     :     0.022839
      dyz     :     0.025482
      dx2y2   :     0.012686
      dxy     :     0.016762
 17 C s       :     3.154841  s :     3.154841
      pz      :     0.869230  p :     2.912400
      px      :     1.012104
      py      :     1.031066
      dz2     :     0.008105  d :     0.035019
      dxz     :     0.009754
      dyz     :     0.006302
      dx2y2   :     0.006080
      dxy     :     0.004778
 18 C s       :     3.177682  s :     3.177682
      pz      :     0.860570  p :     2.784684
      px      :     0.910899
      py      :     1.013214
      dz2     :     0.010074  d :     0.034735
      dxz     :     0.009134
      dyz     :     0.004579
      dx2y2   :     0.005470
      dxy     :     0.005478
 19 C s       :     3.056577  s :     3.056577
      pz      :     0.960285  p :     2.895745
      px      :     0.948257
      py      :     0.987202
      dz2     :     0.009014  d :     0.043087
      dxz     :     0.012941
      dyz     :     0.008348
      dx2y2   :     0.006265
      dxy     :     0.006518
 20 C s       :     3.091919  s :     3.091919
      pz      :     0.989918  p :     3.038000
      px      :     0.981408
      py      :     1.066674
      dz2     :     0.011841  d :     0.044441
      dxz     :     0.012459
      dyz     :     0.007572
      dx2y2   :     0.006242
      dxy     :     0.006327
 21 H s       :     0.992500  s :     0.992500
      pz      :     0.014475  p :     0.027555
      px      :     0.006423
      py      :     0.006657
 22 C s       :     2.971056  s :     2.971056
      pz      :     1.005263  p :     2.924481
      px      :     0.912399
      py      :     1.006819
      dz2     :     0.007434  d :     0.035002
      dxz     :     0.006027
      dyz     :     0.004736
      dx2y2   :     0.009089
      dxy     :     0.007715
 23 H s       :     0.952312  s :     0.952312
      pz      :     0.013582  p :     0.023721
      px      :     0.005036
      py      :     0.005103
 24 H s       :     0.928493  s :     0.928493
      pz      :     0.006344  p :     0.021194
      px      :     0.003480
      py      :     0.011370
 25 C s       :     3.084522  s :     3.084522
      pz      :     1.017236  p :     2.986666
      px      :     0.982616
      py      :     0.986815
      dz2     :     0.010434  d :     0.036657
      dxz     :     0.003399
      dyz     :     0.005458
      dx2y2   :     0.006945
      dxy     :     0.010420
 26 H s       :     0.941055  s :     0.941055
      pz      :     0.004947  p :     0.022328
      px      :     0.010789
      py      :     0.006592
 27 H s       :     0.947884  s :     0.947884
      pz      :     0.012460  p :     0.019673
      px      :     0.003295
      py      :     0.003918
 28 C s       :     3.003102  s :     3.003102
      pz      :     1.012609  p :     3.018662
      px      :     1.038964
      py      :     0.967089
      dz2     :     0.007089  d :     0.028778
      dxz     :     0.003863
      dyz     :     0.005895
      dx2y2   :     0.004650
      dxy     :     0.007281
 29 H s       :     0.945957  s :     0.945957
      pz      :     0.005135  p :     0.023553
      px      :     0.012820
      py      :     0.005598
 30 H s       :     0.946047  s :     0.946047
      pz      :     0.013022  p :     0.023369
      px      :     0.006513
      py      :     0.003835
 31 H s       :     0.951986  s :     0.951986
      pz      :     0.008576  p :     0.025797
      px      :     0.008822
      py      :     0.008399
 32 H s       :     0.917228  s :     0.917228
      pz      :     0.013082  p :     0.023869
      px      :     0.005883
      py      :     0.004904
 33 H s       :     0.909296  s :     0.909296
      pz      :     0.010387  p :     0.022270
      px      :     0.006405
      py      :     0.005478


                     *******************************
                     * LOEWDIN POPULATION ANALYSIS *
                     *******************************

----------------------
LOEWDIN ATOMIC CHARGES
----------------------
   0 S :    0.371723
   1 C :   -0.183790
   2 C :   -0.051708
   3 C :   -0.066841
   4 C :   -0.196572
   5 H :    0.031064
   6 C :   -0.027461
   7 H :    0.028792
   8 H :    0.026663
   9 C :   -0.037997
  10 H :    0.027806
  11 H :    0.023695
  12 C :   -0.076281
  13 H :    0.028654
  14 H :    0.027576
  15 H :    0.026645
  16 S :    0.415486
  17 C :   -0.185115
  18 C :   -0.055416
  19 C :   -0.045352
  20 C :   -0.201292
  21 H :    0.014508
  22 C :   -0.037188
  23 H :    0.030650
  24 H :    0.044793
  25 C :   -0.047441
  26 H :    0.025829
  27 H :    0.027544
  28 C :   -0.072888
  29 H :    0.030804
  30 H :    0.025016
  31 H :    0.017726
  32 H :    0.026849
  33 H :    0.033522

-------------------------------
LOEWDIN REDUCED ORBITAL CHARGES
-------------------------------
  0 S s       :     5.533275  s :     5.533275
      pz      :     2.967529  p :     9.975471
      px      :     3.650076
      py      :     3.357866
      dz2     :     0.016766  d :     0.119531
      dxz     :     0.023581
      dyz     :     0.056885
      dx2y2   :     0.012857
      dxy     :     0.009442
  1 C s       :     2.946278  s :     2.946278
      pz      :     1.013183  p :     3.162389
      px      :     1.114450
      py      :     1.034756
      dz2     :     0.013571  d :     0.075122
      dxz     :     0.005476
      dyz     :     0.032122
      dx2y2   :     0.010626
      dxy     :     0.013327
  2 C s       :     2.877864  s :     2.877864
      pz      :     1.038400  p :     3.072253
      px      :     0.970103
      py      :     1.063750
      dz2     :     0.029033  d :     0.101591
      dxz     :     0.012624
      dyz     :     0.029006
      dx2y2   :     0.016041
      dxy     :     0.014888
  3 C s       :     2.872599  s :     2.872599
      pz      :     1.022050  p :     3.106290
      px      :     1.026433
      py      :     1.057807
      dz2     :     0.024812  d :     0.087952
      dxz     :     0.010119
      dyz     :     0.029936
      dx2y2   :     0.012938
      dxy     :     0.010147
  4 C s       :     2.897246  s :     2.897246
      pz      :     1.049509  p :     3.183282
      px      :     1.055670
      py      :     1.078103
      dz2     :     0.027241  d :     0.116044
      dxz     :     0.015175
      dyz     :     0.042860
      dx2y2   :     0.013528
      dxy     :     0.017240
  5 H s       :     0.897566  s :     0.897566
      pz      :     0.022015  p :     0.071370
      px      :     0.016027
      py      :     0.033328
  6 C s       :     2.830857  s :     2.830857
      pz      :     1.041012  p :     3.111633
      px      :     1.036828
      py      :     1.033793
      dz2     :     0.006595  d :     0.084972
      dxz     :     0.026805
      dyz     :     0.022514
      dx2y2   :     0.012431
      dxy     :     0.016627
  7 H s       :     0.900586  s :     0.900586
      pz      :     0.028952  p :     0.070623
      px      :     0.024855
      py      :     0.016815
  8 H s       :     0.902728  s :     0.902728
      pz      :     0.025330  p :     0.070608
      px      :     0.022144
      py      :     0.023134
  9 C s       :     2.850940  s :     2.850940
      pz      :     1.044813  p :     3.105682
      px      :     1.027167
      py      :     1.033702
      dz2     :     0.006544  d :     0.081375
      dxz     :     0.019960
      dyz     :     0.023662
      dx2y2   :     0.014495
      dxy     :     0.016716
 10 H s       :     0.907308  s :     0.907308
      pz      :     0.019444  p :     0.064886
      px      :     0.016267
      py      :     0.029175
 11 H s       :     0.906589  s :     0.906589
      pz      :     0.023461  p :     0.069717
      px      :     0.027858
      py      :     0.018398
 12 C s       :     2.858681  s :     2.858681
      pz      :     1.042185  p :     3.151524
      px      :     1.061094
      py      :     1.048245
      dz2     :     0.010727  d :     0.066076
      dxz     :     0.012109
      dyz     :     0.018152
      dx2y2   :     0.007073
      dxy     :     0.018014
 13 H s       :     0.908188  s :     0.908188
      pz      :     0.015492  p :     0.063158
      px      :     0.026298
      py      :     0.021368
 14 H s       :     0.913710  s :     0.913710
      pz      :     0.027937  p :     0.058714
      px      :     0.014355
      py      :     0.016422
 15 H s       :     0.905861  s :     0.905861
      pz      :     0.016269  p :     0.067494
      px      :     0.032618
      py      :     0.018607
 16 S s       :     5.517689  s :     5.517689
      pz      :     3.044678  p :     9.935457
      px      :     3.397918
      py      :     3.492862
      dz2     :     0.037873  d :     0.131368
      dxz     :     0.028258
      dyz     :     0.031471
      dx2y2   :     0.013923
      dxy     :     0.019843
 17 C s       :     2.945357  s :     2.945357
      pz      :     1.004811  p :     3.159113
      px      :     1.091260
      py      :     1.063042
      dz2     :     0.019695  d :     0.080645
      dxz     :     0.022977
      dyz     :     0.014284
      dx2y2   :     0.013442
      dxy     :     0.010247
 18 C s       :     2.849076  s :     2.849076
      pz      :     1.049299  p :     3.113787
      px      :     1.041831
      py      :     1.022657
      dz2     :     0.028753  d :     0.092553
      dxz     :     0.026424
      dyz     :     0.010114
      dx2y2   :     0.013321
      dxy     :     0.013941
 19 C s       :     2.860383  s :     2.860383
      pz      :     1.052780  p :     3.076989
      px      :     1.030706
      py      :     0.993503
      dz2     :     0.025432  d :     0.107980
      dxz     :     0.035738
      dyz     :     0.019256
      dx2y2   :     0.013435
      dxy     :     0.014118
 20 C s       :     2.906524  s :     2.906524
      pz      :     1.063138  p :     3.187196
      px      :     1.045157
      py      :     1.078902
      dz2     :     0.031372  d :     0.107572
      dxz     :     0.032019
      dyz     :     0.017715
      dx2y2   :     0.012967
      dxy     :     0.013499
 21 H s       :     0.900657  s :     0.900657
      pz      :     0.042527  p :     0.084835
      px      :     0.020777
      py      :     0.021531
 22 C s       :     2.831234  s :     2.831234
      pz      :     1.070465  p :     3.117399
      px      :     1.005548
      py      :     1.041385
      dz2     :     0.019104  d :     0.088555
      dxz     :     0.014911
      dyz     :     0.011996
      dx2y2   :     0.022018
      dxy     :     0.020526
 23 H s       :     0.899970  s :     0.899970
      pz      :     0.038168  p :     0.069380
      px      :     0.016122
      py      :     0.015091
 24 H s       :     0.894963  s :     0.894963
      pz      :     0.016905  p :     0.060244
      px      :     0.010472
      py      :     0.032867
 25 C s       :     2.849053  s :     2.849053
      pz      :     1.042019  p :     3.110855
      px      :     1.033284
      py      :     1.035552
      dz2     :     0.025544  d :     0.087533
      dxz     :     0.007424
      dyz     :     0.012192
      dx2y2   :     0.017485
      dxy     :     0.024888
 26 H s       :     0.906718  s :     0.906718
      pz      :     0.014212  p :     0.067453
      px      :     0.032613
      py      :     0.020627
 27 H s       :     0.917615  s :     0.917615
      pz      :     0.034613  p :     0.054841
      px      :     0.009349
      py      :     0.010880
 28 C s       :     2.828972  s :     2.828972
      pz      :     1.067013  p :     3.170760
      px      :     1.077312
      py      :     1.026435
      dz2     :     0.017638  d :     0.073157
      dxz     :     0.010207
      dyz     :     0.014804
      dx2y2   :     0.012963
      dxy     :     0.017546
 29 H s       :     0.906074  s :     0.906074
      pz      :     0.012728  p :     0.063122
      px      :     0.033578
      py      :     0.016816
 30 H s       :     0.909132  s :     0.909132
      pz      :     0.036287  p :     0.065851
      px      :     0.017068
      py      :     0.012496
 31 H s       :     0.908361  s :     0.908361
      pz      :     0.024045  p :     0.073914
      px      :     0.023780
      py      :     0.026088
 32 H s       :     0.897810  s :     0.897810
      pz      :     0.040690  p :     0.075341
      px      :     0.019199
      py      :     0.015453
 33 H s       :     0.896444  s :     0.896444
      pz      :     0.033429  p :     0.070034
      px      :     0.019532
      py      :     0.017073


                      *****************************
                      * MAYER POPULATION ANALYSIS *
                      *****************************

  NA   - Mulliken gross atomic population
  ZA   - Total nuclear charge
  QA   - Mulliken gross atomic charge
  VA   - Mayer's total valence
  BVA  - Mayer's bonded valence
  FA   - Mayer's free valence

  ATOM       NA         ZA         QA         VA         BVA        FA
  0 S     15.9118    16.0000     0.0882     2.4427     2.4427    -0.0000
  1 C      6.1340     6.0000    -0.1340     3.8354     3.8354    -0.0000
  2 C      6.1020     6.0000    -0.1020     3.9844     3.9844    -0.0000
  3 C      5.9650     6.0000     0.0350     3.9313     3.9313    -0.0000
  4 C      6.1610     6.0000    -0.1610     3.9067     3.9067    -0.0000
  5 H      0.9815     1.0000     0.0185     1.0062     1.0062     0.0000
  6 C      5.9086     6.0000     0.0914     3.9354     3.9354     0.0000
  7 H      0.9804     1.0000     0.0196     0.9904     0.9904     0.0000
  8 H      0.9792     1.0000     0.0208     0.9937     0.9937     0.0000
  9 C      6.0855     6.0000    -0.0855     4.0568     4.0568     0.0000
 10 H      0.9656     1.0000     0.0344     0.9802     0.9802    -0.0000
 11 H      0.9609     1.0000     0.0391     0.9811     0.9811    -0.0000
 12 C      6.0744     6.0000    -0.0744     3.9898     3.9898     0.0000
 13 H      0.9567     1.0000     0.0433     0.9868     0.9868    -0.0000
 14 H      0.9708     1.0000     0.0292     0.9837     0.9837     0.0000
 15 H      0.9530     1.0000     0.0470     0.9847     0.9847     0.0000
 16 S     15.8856    16.0000     0.1144     2.4915     2.4915     0.0000
 17 C      6.1023     6.0000    -0.1023     3.8367     3.8367    -0.0000
 18 C      5.9971     6.0000     0.0029     3.9450     3.9450    -0.0000
 19 C      5.9954     6.0000     0.0046     3.9652     3.9652    -0.0000
 20 C      6.1744     6.0000    -0.1744     3.8826     3.8826    -0.0000
 21 H      1.0201     1.0000    -0.0201     1.0035     1.0035     0.0000
 22 C      5.9305     6.0000     0.0695     3.9696     3.9696    -0.0000
 23 H      0.9760     1.0000     0.0240     0.9941     0.9941    -0.0000
 24 H      0.9497     1.0000     0.0503     0.9788     0.9788    -0.0000
 25 C      6.1078     6.0000    -0.1078     4.0783     4.0783    -0.0000
 26 H      0.9634     1.0000     0.0366     0.9761     0.9761     0.0000
 27 H      0.9676     1.0000     0.0324     0.9751     0.9751    -0.0000
 28 C      6.0505     6.0000    -0.0505     3.9820     3.9820     0.0000
 29 H      0.9695     1.0000     0.0305     0.9969     0.9969    -0.0000
 30 H      0.9694     1.0000     0.0306     0.9891     0.9891     0.0000
 31 H      0.9778     1.0000     0.0222     0.9893     0.9893     0.0000
 32 H      0.9411     1.0000     0.0589     1.0000     1.0000    -0.0000
 33 H      0.9316     1.0000     0.0684     0.9892     0.9892    -0.0000

  Mayer bond orders larger than 0.100000
B(  0-S ,  1-C ) :   1.1113 B(  0-S ,  4-C ) :   1.1360 B(  1-C ,  2-C ) :   1.6379 
B(  1-C , 32-H ) :   0.9728 B(  2-C ,  3-C ) :   1.1957 B(  2-C ,  6-C ) :   1.0224 
B(  3-C ,  4-C ) :   1.6266 B(  3-C ,  5-H ) :   0.9909 B(  4-C , 20-C ) :   1.0195 
B(  6-C ,  7-H ) :   0.9432 B(  6-C ,  8-H ) :   0.9412 B(  6-C ,  9-C ) :   1.0412 
B(  9-C , 10-H ) :   0.9612 B(  9-C , 11-H ) :   0.9655 B(  9-C , 12-C ) :   1.0714 
B( 12-C , 13-H ) :   0.9760 B( 12-C , 14-H ) :   0.9774 B( 12-C , 15-H ) :   0.9765 
B( 16-S , 17-C ) :   1.1625 B( 16-S , 20-C ) :   1.1494 B( 17-C , 18-C ) :   1.6056 
B( 17-C , 33-H ) :   0.9609 B( 18-C , 19-C ) :   1.2274 B( 18-C , 21-H ) :   1.0124 
B( 19-C , 20-C ) :   1.5668 B( 19-C , 22-C ) :   1.0524 B( 22-C , 23-H ) :   0.9344 
B( 22-C , 24-H ) :   0.9354 B( 22-C , 25-C ) :   1.0677 B( 25-C , 26-H ) :   0.9571 
B( 25-C , 27-H ) :   0.9555 B( 25-C , 28-C ) :   1.0699 B( 28-C , 29-H ) :   0.9708 
B( 28-C , 30-H ) :   0.9732 B( 28-C , 31-H ) :   0.9755 

-------
TIMINGS
-------

Total SCF time: 0 days 0 hours 0 min 26 sec 

Total time                  ....      26.788 sec
Sum of individual times     ....      25.629 sec  ( 95.7%)

Fock matrix formation       ....      23.752 sec  ( 88.7%)
  XC integration            ....       1.651 sec  (  7.0% of F)
    Basis function eval.    ....       0.208 sec  ( 12.6% of XC)
    Density eval.           ....       0.151 sec  (  9.1% of XC)
    XC-Functional eval.     ....       0.175 sec  ( 10.6% of XC)
    XC-Potential eval.      ....       0.185 sec  ( 11.2% of XC)
Diagonalization             ....       0.130 sec  (  0.5%)
Density matrix formation    ....       0.018 sec  (  0.1%)
Population analysis         ....       0.069 sec  (  0.3%)
Initial guess               ....       0.193 sec  (  0.7%)
Orbital Transformation      ....       0.000 sec  (  0.0%)
Orbital Orthonormalization  ....       0.000 sec  (  0.0%)
DIIS solution               ....       0.129 sec  (  0.5%)
SOSCF solution              ....       0.109 sec  (  0.4%)
Grid generation             ....       1.229 sec  (  4.6%)


-------------------------------------------------------------------------------
                          DFT DISPERSION CORRECTION                            
                                                                               
                              DFTD3 V3.1  Rev 1                                
                              USING zero damping                               
-------------------------------------------------------------------------------
The omegaB97X-D3 functional is recognized. Fit by Chai et al.
Active option DFTDOPT                   ...         3   

molecular C6(AA) [au] = 14209.221579 


            DFT-D V3
 parameters
 s6 scaling factor         :     1.0000 
 rs6 scaling factor        :     1.2810 
 s8 scaling factor         :     1.0000 
 rs8 scaling factor        :     1.0940 
 Damping factor alpha6     :    14.0000 
 Damping factor alpha8     :    16.0000 
 ad hoc parameters k1-k3   :    16.0000     1.3333    -4.0000 

 Edisp/kcal,au: -9.184513299350  -0.014636452037 
 E6   /kcal   :  -4.176493439 
 E8   /kcal   :  -5.008019861 
 % E8         :  54.526785443 

-------------------------   ----------------
Dispersion correction           -0.014636452
-------------------------   ----------------


-------------------------   --------------------
FINAL SINGLE POINT ENERGY     -1339.866620034046
-------------------------   --------------------


                            ***************************************
                            *     ORCA property calculations      *
                            ***************************************

                                    ---------------------
                                    Active property flags
                                    ---------------------
   (+) Dipole Moment


------------------------------------------------------------------------------
                       ORCA ELECTRIC PROPERTIES CALCULATION
------------------------------------------------------------------------------

Dipole Moment Calculation                       ... on
Quadrupole Moment Calculation                   ... off
Polarizability Calculation                      ... off
GBWName                                         ... config_3061.gbw
Electron density file                           ... config_3061.scfp
The origin for moment calculation is the CENTER OF MASS  = (81.663840, 28.292809 159.330521)

-------------
DIPOLE MOMENT
-------------
                                X             Y             Z
Electronic contribution:    -14.47824     -13.53998       7.54146
Nuclear contribution   :     14.90629      13.93504      -7.44693
                        -----------------------------------------
Total Dipole Moment    :      0.42805       0.39505       0.09453
                        -----------------------------------------
Magnitude (a.u.)       :      0.59011
Magnitude (Debye)      :      1.49994



--------------------
Rotational spectrum 
--------------------
 
Rotational constants in cm-1:     0.021058     0.007428     0.006973 
Rotational constants in MHz :   631.300726   222.699519   209.030927 

 Dipole components along the rotational axes: 
x,y,z [a.u.] :    -0.003266    -0.359288    -0.468114 
x,y,z [Debye]:    -0.008302    -0.913236    -1.189852 

 

Timings for individual modules:

Sum of individual times         ...       28.068 sec (=   0.468 min)
GTO integral calculation        ...        0.887 sec (=   0.015 min)   3.2 %
SCF iterations                  ...       27.181 sec (=   0.453 min)  96.8 %
                             ****ORCA TERMINATED NORMALLY****
TOTAL RUN TIME: 0 days 0 hours 0 minutes 28 seconds 684 msec
