
                                 *****************
                                 * O   R   C   A *
                                 *****************

           --- An Ab Initio, DFT and Semiempirical electronic structure package ---

                  #######################################################
                  #                        -***-                        #
                  #          Department of theory and spectroscopy      #
                  #               Directorship: Frank Neese             #
                  #        Max Planck Institute fuer Kohlenforschung    #
                  #                Kaiser Wilhelm Platz 1               #
                  #                 D-45470 Muelheim/Ruhr               #
                  #                      Germany                        #
                  #                                                     #
                  #                  All rights reserved                #
                  #                        -***-                        #
                  #######################################################


                         Program Version 4.2.1 -  RELEASE  -


 With contributions from (in alphabetic order):
   Daniel Aravena         : Magnetic Suceptibility
   Michael Atanasov       : Ab Initio Ligand Field Theory (pilot matlab implementation)
   Alexander A. Auer      : GIAO ZORA, VPT2
   Ute Becker             : Parallelization
   Giovanni Bistoni       : ED, misc. LED, open-shell LED, HFLD
   Martin Brehm           : Molecular dynamics
   Dmytro Bykov           : SCF Hessian
   Vijay G. Chilkuri      : MRCI spin determinant printing, contributions to CSF-ICE
   Dipayan Datta          : RHF DLPNO-CCSD density
   Achintya Kumar Dutta   : EOM-CC, STEOM-CC
   Dmitry Ganyushin       : Spin-Orbit,Spin-Spin,Magnetic field MRCI
   Miquel Garcia          : C-PCM Hessian, Gaussian charge scheme
   Yang Guo               : DLPNO-NEVPT2, CIM, IAO-localization
   Andreas Hansen         : Spin unrestricted coupled pair/coupled cluster methods
   Benjamin Helmich-Paris : CASSCF linear response (MC-RPA)
   Lee Huntington         : MR-EOM, pCC
   Robert Izsak           : Overlap fitted RIJCOSX, COSX-SCS-MP3, EOM
   Christian Kollmar      : KDIIS, OOCD, Brueckner-CCSD(T), CCSD density
   Simone Kossmann        : Meta GGA functionals, TD-DFT gradient, OOMP2, MP2 Hessian
   Martin Krupicka        : AUTO-CI
   Lucas Lang             : DCDCAS
   Dagmar Lenk            : GEPOL surface, SMD
   Dimitrios Liakos       : Extrapolation schemes; Compound Job, initial MDCI parallelization
   Dimitrios Manganas     : Further ROCIS development; embedding schemes
   Dimitrios Pantazis     : SARC Basis sets
   Taras Petrenko         : DFT Hessian,TD-DFT gradient, ASA, ECA, R-Raman, ABS, FL, XAS/XES, NRVS
   Peter Pinski           : DLPNO-MP2, DLPNO-MP2 Gradient
   Christoph Reimann      : Effective Core Potentials
   Marius Retegan         : Local ZFS, SOC
   Christoph Riplinger    : Optimizer, TS searches, QM/MM, DLPNO-CCSD(T), (RO)-DLPNO pert. Triples
   Tobias Risthaus        : Range-separated hybrids, TD-DFT gradient, RPA, STAB
   Michael Roemelt        : Original ROCIS implementation
   Masaaki Saitow         : Open-shell DLPNO-CCSD energy and density
   Barbara Sandhoefer     : DKH picture change effects
   Avijit Sen             : IP-ROCIS
   Kantharuban Sivalingam : CASSCF convergence, NEVPT2, FIC-MRCI
   Bernardo de Souza      : ESD, SOC TD-DFT
   Georgi Stoychev        : AutoAux, RI-MP2 NMR
   Willem Van den Heuvel  : Paramagnetic NMR
   Boris Wezisla          : Elementary symmetry handling
   Frank Wennmohs         : Technical directorship


 We gratefully acknowledge several colleagues who have allowed us to
 interface, adapt or use parts of their codes:
   Stefan Grimme, W. Hujo, H. Kruse,             : VdW corrections, initial TS optimization,
                  C. Bannwarth                     DFT functionals, gCP, sTDA/sTD-DF
   Ed Valeev, F. Pavosevic, A. Kumar             : LibInt (2-el integral package), F12 methods
   Garnet Chan, S. Sharma, J. Yang, R. Olivares  : DMRG
   Ulf Ekstrom                                   : XCFun DFT Library
   Mihaly Kallay                                 : mrcc  (arbitrary order and MRCC methods)
   Andreas Klamt, Michael Diedenhofen            : otool_cosmo (COSMO solvation model)
   Jiri Pittner, Ondrej Demel                    : Mk-CCSD
   Frank Weinhold                                : gennbo (NPA and NBO analysis)
   Christopher J. Cramer and Donald G. Truhlar   : smd solvation model
   Lars Goerigk                                  : TD-DFT with DH, B97 family of functionals
   V. Asgeirsson, H. Jonsson                     : NEB implementation
   FAccTs GmbH                                   : IRC, NEB, NEB-TS, Multilevel, MM, QM/MM, CI optimization
   S Lehtola, MJT Oliveira, MAL Marques          : LibXC Library


 Your calculation uses the libint2 library for the computation of 2-el integrals
 For citations please refer to: http://libint.valeyev.net

 Your ORCA version has been built with support for libXC version: 4.2.3
 For citations please refer to: https://tddft.org/programs/libxc/

 This ORCA versions uses:
   CBLAS   interface :  Fast vector & matrix operations
   LAPACKE interface :  Fast linear algebra routines
   SCALAPACK package :  Parallel linear algebra routines


Your calculation utilizes the atom-pairwise dispersion correction
with the zero-damping scheme (D30)
Cite in your paper:
S.Grimme, J.Antony, S.Ehrlich and H.Krieg, J.Chem.Phys., 132, (2010), 154104 
   

XCFun DFT library Copyright 2009-2010 Ulf Ekstrom and contributors.
See http://admol.org/xcfun for more information. This is free soft-
ware; see the source code for copying conditions. There is ABSOLUTELY
NO WARRANTY; not even for MERCHANTABILITY or FITNESS FOR A PARTICULAR
PURPOSE. For details see the documentation. Scientific users of this 
library should cite U. Ekstrom, L. Visscher, R. Bast, A. J. Thorvald-
sen and K. Ruud; J.Chem.Theor.Comp. 2010, DOI: 10.1021/ct100117s
XCFun Version 0.99 
----- Orbital basis set information -----
Your calculation utilizes the basis: def2-SVP
   F. Weigend and R. Ahlrichs, Phys. Chem. Chem. Phys. 7, 3297 (2005).

================================================================================
                                        WARNINGS
                       Please study these warnings very carefully!
================================================================================


INFO   : the flag for use of LIBINT has been found!

================================================================================
                                       INPUT FILE
================================================================================
NAME = config_5012.inp
|  1> ! wB97X-D3 SP def2-SVP
|  2> %pal
|  3> nprocs 16
|  4> end
|  5> 
|  6> * xyz 0 1
|  7> S 	 -4.52265 	 -21.5468 	 83.8017 	 
|  8> C 	 -3.01028 	 -21.3293 	 83.0198 	 
|  9> C 	 -1.93548 	 -21.3819 	 83.9124 	 
| 10> C 	 -2.43382 	 -21.3943 	 85.2769 	 
| 11> C 	 -3.74187 	 -21.6219 	 85.4179 	 
| 12> H 	 -1.76728 	 -21.4268 	 86.1898 	 
| 13> C 	 -0.504817 	 -21.167 	 83.5513 	 
| 14> H 	 -0.273992 	 -20.0819 	 83.5353 	 
| 15> H 	 -0.349795 	 -21.5209 	 82.5438 	 
| 16> C 	 0.562384 	 -21.7121 	 84.5333 	 
| 17> H 	 1.5945 	 -21.3616 	 84.3022 	 
| 18> H 	 0.420672 	 -21.2396 	 85.5035 	 
| 19> C 	 0.385267 	 -23.2549 	 84.7127 	 
| 20> H 	 0.489114 	 -23.9029 	 83.8077 	 
| 21> H 	 1.28825 	 -23.5712 	 85.24 	 
| 22> H 	 -0.512496 	 -23.5485 	 85.2488 	 
| 23> S 	 -4.13381 	 -23.6894 	 87.1589 	 
| 24> C 	 -5.3189 	 -23.5748 	 88.4093 	 
| 25> C 	 -5.85746 	 -22.2816 	 88.5674 	 
| 26> C 	 -5.41198 	 -21.4391 	 87.4837 	 
| 27> C 	 -4.45751 	 -22.0591 	 86.6437 	 
| 28> H 	 -6.57534 	 -22.1105 	 89.3673 	 
| 29> C 	 -5.69079 	 -19.9707 	 87.4535 	 
| 30> H 	 -6.40717 	 -19.6527 	 88.1605 	 
| 31> H 	 -6.22777 	 -19.6805 	 86.5855 	 
| 32> C 	 -4.48607 	 -19.0713 	 87.7138 	 
| 33> H 	 -3.57472 	 -19.532 	 87.2812 	 
| 34> H 	 -4.38618 	 -18.9208 	 88.8398 	 
| 35> C 	 -4.4865 	 -17.7997 	 86.9112 	 
| 36> H 	 -4.81192 	 -18.0541 	 85.8817 	 
| 37> H 	 -3.56405 	 -17.25 	 86.8784 	 
| 38> H 	 -5.20504 	 -17.2133 	 87.3668 	 
| 39> H 	 -3.00833 	 -21.2436 	 81.906 	 
| 40> H 	 -5.61098 	 -24.3312 	 89.0879 	 
| 41> *
| 42> 
| 43>                          ****END OF INPUT****
================================================================================

                       ****************************
                       * Single Point Calculation *
                       ****************************

---------------------------------
CARTESIAN COORDINATES (ANGSTROEM)
---------------------------------
  S     -4.522650  -21.546800   83.801700
  C     -3.010280  -21.329300   83.019800
  C     -1.935480  -21.381900   83.912400
  C     -2.433820  -21.394300   85.276900
  C     -3.741870  -21.621900   85.417900
  H     -1.767280  -21.426800   86.189800
  C     -0.504817  -21.167000   83.551300
  H     -0.273992  -20.081900   83.535300
  H     -0.349795  -21.520900   82.543800
  C      0.562384  -21.712100   84.533300
  H      1.594500  -21.361600   84.302200
  H      0.420672  -21.239600   85.503500
  C      0.385267  -23.254900   84.712700
  H      0.489114  -23.902900   83.807700
  H      1.288250  -23.571200   85.240000
  H     -0.512496  -23.548500   85.248800
  S     -4.133810  -23.689400   87.158900
  C     -5.318900  -23.574800   88.409300
  C     -5.857460  -22.281600   88.567400
  C     -5.411980  -21.439100   87.483700
  C     -4.457510  -22.059100   86.643700
  H     -6.575340  -22.110500   89.367300
  C     -5.690790  -19.970700   87.453500
  H     -6.407170  -19.652700   88.160500
  H     -6.227770  -19.680500   86.585500
  C     -4.486070  -19.071300   87.713800
  H     -3.574720  -19.532000   87.281200
  H     -4.386180  -18.920800   88.839800
  C     -4.486500  -17.799700   86.911200
  H     -4.811920  -18.054100   85.881700
  H     -3.564050  -17.250000   86.878400
  H     -5.205040  -17.213300   87.366800
  H     -3.008330  -21.243600   81.906000
  H     -5.610980  -24.331200   89.087900

----------------------------
CARTESIAN COORDINATES (A.U.)
----------------------------
  NO LB      ZA    FRAG     MASS         X           Y           Z
   0 S    16.0000    0    32.060   -8.546570  -40.717551  158.362263
   1 C     6.0000    0    12.011   -5.688605  -40.306536  156.884686
   2 C     6.0000    0    12.011   -3.657527  -40.405935  158.571455
   3 C     6.0000    0    12.011   -4.599253  -40.429368  161.149987
   4 C     6.0000    0    12.011   -7.071110  -40.859469  161.416438
   5 H     1.0000    0     1.008   -3.339675  -40.490784  162.875118
   6 C     6.0000    0    12.011   -0.953966  -39.999833  157.889075
   7 H     1.0000    0     1.008   -0.517770  -37.949291  157.858840
   8 H     1.0000    0     1.008   -0.661017  -40.668607  155.985176
   9 C     6.0000    0    12.011    1.062752  -41.029923  159.744786
  10 H     1.0000    0     1.008    3.013168  -40.367574  159.308070
  11 H     1.0000    0     1.008    0.794955  -40.137027  161.578198
  12 C     6.0000    0    12.011    0.728049  -43.945392  160.083803
  13 H     1.0000    0     1.008    0.924292  -45.169935  158.373601
  14 H     1.0000    0     1.008    2.434440  -44.543113  161.080256
  15 H     1.0000    0     1.008   -0.968477  -44.500216  161.096885
  16 S    16.0000    0    32.060   -7.811769  -44.766478  164.706451
  17 C     6.0000    0    12.011  -10.051264  -44.549916  167.069365
  18 C     6.0000    0    12.011  -11.068995  -42.106122  167.368130
  19 C     6.0000    0    12.011  -10.227160  -40.514028  165.320234
  20 C     6.0000    0    12.011   -8.423473  -41.685658  163.732864
  21 H     1.0000    0     1.008  -12.425592  -41.782790  168.879722
  22 C     6.0000    0    12.011  -10.754035  -37.739154  165.263164
  23 H     1.0000    0     1.008  -12.107797  -37.138221  166.599201
  24 H     1.0000    0     1.008  -11.768780  -37.190755  163.622882
  25 C     6.0000    0    12.011   -8.477444  -36.039534  165.755060
  26 H     1.0000    0     1.008   -6.755242  -36.910131  164.937565
  27 H     1.0000    0     1.008   -8.288679  -35.755130  167.882892
  28 C     6.0000    0    12.011   -8.478256  -33.636558  164.238366
  29 H     1.0000    0     1.008   -9.093211  -34.117305  162.292893
  30 H     1.0000    0     1.008   -6.735078  -32.597776  164.176383
  31 H     1.0000    0     1.008   -9.836100  -32.528423  165.099325
  32 H     1.0000    0     1.008   -5.684920  -40.144586  154.779909
  33 H     1.0000    0     1.008  -10.603216  -45.979305  168.351733

--------------------------------
INTERNAL COORDINATES (ANGSTROEM)
--------------------------------
 S      0   0   0     0.000000000000     0.00000000     0.00000000
 C      1   0   0     1.716373175303     0.00000000     0.00000000
 C      2   1   0     1.398104631278   112.44359860     0.00000000
 C      3   2   1     1.452706703227   109.65016320   350.96286077
 C      4   3   2     1.335169488305   115.89492353    12.79658274
 H      4   3   2     1.130804241060   123.80208748   180.46027032
 C      3   2   1     1.491097528524   125.27943418   182.94386130
 H      7   3   2     1.109494565388   110.12434008    83.64958408
 H      7   3   2     1.079042761193   108.46281039   327.93923901
 C      7   3   2     1.549314682174   117.17447771   199.71747407
 H     10   7   3     1.114235566411   113.32337092   190.40037154
 H     10   7   3     1.088405522287   108.81832085   300.35514836
 C     10   7   3     1.563261536560   109.99406663    58.65402146
 H     13  10   7     1.117905720268   117.94601139    60.76599342
 H     13  10   7     1.092460195288   104.32861562   168.59900642
 H     13  10   7     1.086085896313   114.65103865   290.85242961
 S      5   4   3     2.731163527437   109.69133758   126.79329355
 C     17   5   4     1.726578011009   120.65755769   134.31245085
 C     18  17   5     1.409754845212   113.84839936   349.76742196
 C     19  18  17     1.443143918811   109.47452469     8.96815555
 C     20  19  18     1.414571659867   113.47358420   353.50489476
 H     19  18  17     1.088332170985   118.59592011   183.01442263
 C     20  19  18     1.494940004181   122.07504696   186.96462213
 H     23  20  19     1.055544079800   114.13972021   347.10929433
 H     23  20  19     1.061125610095   112.30468903   237.93677954
 C     23  20  19     1.525787248734   115.35957147   107.66170161
 H     26  23  20     1.109029337980   109.71974199    34.86795868
 H     26  23  20     1.140396537219   108.38496984   272.78994113
 C     26  23  20     1.503706588700   114.02874895   143.92451450
 H     29  26  23     1.109273539935   107.54818646   318.07526572
 H     29  26  23     1.074318357146   116.66310291   194.09711329
 H     29  26  23     1.033313143050   104.16775048    74.34415901
 H      2   1   3     1.117093878105   117.74065072   175.77477524
 H     18  17   5     1.057331379654   127.36741134   174.77996320

---------------------------
INTERNAL COORDINATES (A.U.)
---------------------------
 S      0   0   0     0.000000000000     0.00000000     0.00000000
 C      1   0   0     3.243475244932     0.00000000     0.00000000
 C      2   1   0     2.642034859682   112.44359860     0.00000000
 C      3   2   1     2.745217822010   109.65016320   350.96286077
 C      4   3   2     2.523104675264   115.89492353    12.79658274
 H      4   3   2     2.136910326681   123.80208748   180.46027032
 C      3   2   1     2.817765967876   125.27943418   182.94386130
 H      7   3   2     2.096640875657   110.12434008    83.64958408
 H      7   3   2     2.039095305446   108.46281039   327.93923901
 C      7   3   2     2.927780444573   117.17447771   199.71747407
 H     10   7   3     2.105600069192   113.32337092   190.40037154
 H     10   7   3     2.056788359769   108.81832085   300.35514836
 C     10   7   3     2.954136179792   109.99406663    58.65402146
 H     13  10   7     2.112535654851   117.94601139    60.76599342
 H     13  10   7     2.064450581305   104.32861562   168.59900642
 H     13  10   7     2.052404901945   114.65103865   290.85242961
 S      5   4   3     5.161151093810   109.69133758   126.79329355
 C     17   5   4     3.262759589658   120.65755769   134.31245085
 C     18  17   5     2.664050573420   113.84839936   349.76742196
 C     19  18  17     2.727146778386   109.47452469     8.96815555
 C     20  19  18     2.673153033956   113.47358420   353.50489476
 H     19  18  17     2.056649745897   118.59592011   183.01442263
 C     20  19  18     2.825027194545   122.07504696   186.96462213
 H     23  20  19     1.994689233103   114.13972021   347.10929433
 H     23  20  19     2.005236796770   112.30468903   237.93677954
 C     23  20  19     2.883320038737   115.35957147   107.66170161
 H     26  23  20     2.095761723266   109.71974199    34.86795868
 H     26  23  20     2.155037139415   108.38496984   272.78994113
 C     26  23  20     2.841593638416   114.02874895   143.92451450
 H     29  26  23     2.096223198083   107.54818646   318.07526572
 H     29  26  23     2.030167475649   116.66310291   194.09711329
 H     29  26  23     1.952678850946   104.16775048    74.34415901
 H      2   1   3     2.111001495499   117.74065072   175.77477524
 H     18  17   5     1.998066740346   127.36741134   174.77996320

---------------------
BASIS SET INFORMATION
---------------------
There are 3 groups of distinct atoms

 Group   1 Type S   : 10s7p1d contracted to 4s3p1d pattern {5311/511/1}
 Group   2 Type C   : 7s4p1d contracted to 3s2p1d pattern {511/31/1}
 Group   3 Type H   : 4s1p contracted to 2s1p pattern {31/1}

Atom   0S    basis set group =>   1
Atom   1C    basis set group =>   2
Atom   2C    basis set group =>   2
Atom   3C    basis set group =>   2
Atom   4C    basis set group =>   2
Atom   5H    basis set group =>   3
Atom   6C    basis set group =>   2
Atom   7H    basis set group =>   3
Atom   8H    basis set group =>   3
Atom   9C    basis set group =>   2
Atom  10H    basis set group =>   3
Atom  11H    basis set group =>   3
Atom  12C    basis set group =>   2
Atom  13H    basis set group =>   3
Atom  14H    basis set group =>   3
Atom  15H    basis set group =>   3
Atom  16S    basis set group =>   1
Atom  17C    basis set group =>   2
Atom  18C    basis set group =>   2
Atom  19C    basis set group =>   2
Atom  20C    basis set group =>   2
Atom  21H    basis set group =>   3
Atom  22C    basis set group =>   2
Atom  23H    basis set group =>   3
Atom  24H    basis set group =>   3
Atom  25C    basis set group =>   2
Atom  26H    basis set group =>   3
Atom  27H    basis set group =>   3
Atom  28C    basis set group =>   2
Atom  29H    basis set group =>   3
Atom  30H    basis set group =>   3
Atom  31H    basis set group =>   3
Atom  32H    basis set group =>   3
Atom  33H    basis set group =>   3


           ************************************************************
           *        Program running with 16 parallel MPI-processes    *
           *              working on a common directory               *
           ************************************************************
------------------------------------------------------------------------------
                           ORCA GTO INTEGRAL CALCULATION
------------------------------------------------------------------------------

                         BASIS SET STATISTICS AND STARTUP INFO

 # of primitive gaussian shells          ...  294
 # of primitive gaussian functions       ...  534
 # of contracted shells                  ...  154
 # of contracted basis functions         ...  322
 Highest angular momentum                ...    2
 Maximum contraction depth               ...    5
 Integral package used                   ... LIBINT
 Integral threshhold            Thresh   ...  1.000e-10
 Primitive cut-off              TCut     ...  1.000e-11


------------------------------ INTEGRAL EVALUATION ----------------------------


 * One electron integrals 
 Pre-screening matrix                    ... done
 Shell pair data                         ... done (   0.003 sec)



           ************************************************************
           *        Program running with 16 parallel MPI-processes    *
           *              working on a common directory               *
           ************************************************************
-------------------------------------------------------------------------------
                                 ORCA SCF
-------------------------------------------------------------------------------

------------
SCF SETTINGS
------------
Hamiltonian:
 Density Functional     Method          .... DFT(GTOs)
 Exchange Functional    Exchange        .... WB97X-D3
 Correlation Functional Correlation     .... WB97X-D3
 Gradients option       PostSCFGGA      .... off
 Hybrid DFT is turned on
   Fraction HF Exchange ScalHFX         ....  0.195728
   Scaling of DF-GGA-X  ScalDFX         ....  0.000000
   Scaling of DF-GGA-C  ScalDFC         ....  1.000000
   Scaling of DF-LDA-C  ScalLDAC        ....  1.000000
   Perturbative correction              ....  0.000000
   Density functional embedding theory  .... OFF
 Long-range corrected/Screened/Range-Separated Hybrid DFT is turned on
   Amount of maximum screened exact exchange              ....  0.804272
   Range separation parameter mu (erf(mu*r12)/r12)        ....  0.250000


General Settings:
 Integral files         IntName         .... config_5012
 Hartree-Fock type      HFTyp           .... RHF
 Total Charge           Charge          ....    0
 Multiplicity           Mult            ....    1
 Number of Electrons    NEL             ....  134
 Basis Dimension        Dim             ....  322
 Nuclear Repulsion      ENuc            ....   1304.3099737264 Eh

Convergence Acceleration:
 DIIS                   CNVDIIS         .... on
   Start iteration      DIISMaxIt       ....    12
   Startup error        DIISStart       ....  0.200000
   # of expansion vecs  DIISMaxEq       ....     5
   Bias factor          DIISBfac        ....   1.050
   Max. coefficient     DIISMaxC        ....  10.000
 Newton-Raphson         CNVNR           .... off
 SOSCF                  CNVSOSCF        .... on
   Start iteration      SOSCFMaxIt      ....   150
   Startup grad/error   SOSCFStart      ....  0.003300
 Level Shifting         CNVShift        .... on
   Level shift para.    LevelShift      ....    0.2500
   Turn off err/grad.   ShiftErr        ....    0.0010
 Zerner damping         CNVZerner       .... off
 Static damping         CNVDamp         .... on
   Fraction old density DampFac         ....    0.7000
   Max. Damping (<1)    DampMax         ....    0.9800
   Min. Damping (>=0)   DampMin         ....    0.0000
   Turn off err/grad.   DampErr         ....    0.1000
 Fernandez-Rico         CNVRico         .... off

SCF Procedure:
 Maximum # iterations   MaxIter         ....   125
 SCF integral mode      SCFMode         .... Direct
   Integral package                     .... LIBINT
 Reset frequency        DirectResetFreq ....    20
 Integral Threshold     Thresh          ....  1.000e-10 Eh
 Primitive CutOff       TCut            ....  1.000e-11 Eh

Convergence Tolerance:
 Convergence Check Mode ConvCheckMode   .... Total+1el-Energy
 Convergence forced     ConvForced      .... 0
 Energy Change          TolE            ....  1.000e-06 Eh
 1-El. energy change                    ....  1.000e-03 Eh
 Orbital Gradient       TolG            ....  5.000e-05
 Orbital Rotation angle TolX            ....  5.000e-05
 DIIS Error             TolErr          ....  1.000e-06


Diagonalization of the overlap matrix:
Smallest eigenvalue                        ... 7.415e-04
Time for diagonalization                   ...    0.018 sec
Threshold for overlap eigenvalues          ... 1.000e-08
Number of eigenvalues below threshold      ... 0
Time for construction of square roots      ...    0.029 sec
Total time needed                          ...    0.047 sec

-------------------
DFT GRID GENERATION
-------------------

General Integration Accuracy     IntAcc      ...  4.340
Radial Grid Type                 RadialGrid  ... Gauss-Chebyshev
Angular Grid (max. acc.)         AngularGrid ... Lebedev-110
Angular grid pruning method      GridPruning ... 3 (G Style)
Weight generation scheme         WeightScheme... Becke
Basis function cutoff            BFCut       ...    1.0000e-10
Integration weight cutoff        WCut        ...    1.0000e-14
Grids for H and He will be reduced by one unit

# of grid points (after initial pruning)     ...  41088 (   0.0 sec)
# of grid points (after weights+screening)   ...  36900 (   0.0 sec)
nearest neighbour list constructed           ...    0.0 sec
Grid point re-assignment to atoms done       ...    0.0 sec
Grid point division into batches done        ...    0.0 sec
Reduced shell lists constructed in    0.1 sec

Total number of grid points                  ...    36900
Total number of batches                      ...      594
Average number of points per batch           ...       62
Average number of grid points per atom       ...     1085
Average number of shells per batch           ...    80.95 (52.56%)
Average number of basis functions per batch  ...   158.79 (49.32%)
Average number of large shells per batch     ...    52.92 (65.38%)
Average number of large basis fcns per batch ...   106.97 (67.37%)
Maximum spatial batch extension              ...  17.87, 19.64, 11.90 au
Average spatial batch extension              ...   0.23,  0.21,  0.20 au

Time for grid setup =    0.184 sec

------------------------------
INITIAL GUESS: MODEL POTENTIAL
------------------------------
Loading Hartree-Fock densities                     ... done
Calculating cut-offs                               ... done
Setting up the integral package                    ... done
Initializing the effective Hamiltonian             ... done
Starting the Coulomb interaction                   ... done (   0.0 sec)
Reading the grid                                   ... done
Mapping shells                                     ... done
Starting the XC term evaluation                    ... done (   0.0 sec)
  promolecular density results
     # of electrons  =    134.003612711
     EX              =   -126.713338693
     EC              =     -4.619277041
     EX+EC           =   -131.332615734
Transforming the Hamiltonian                       ... done (   0.0 sec)
Diagonalizing the Hamiltonian                      ... done (   0.0 sec)
Back transforming the eigenvectors                 ... done (   0.0 sec)
Now organizing SCF variables                       ... done
                      ------------------
                      INITIAL GUESS DONE (   0.4 sec)
                      ------------------
--------------
SCF ITERATIONS
--------------
ITER       Energy         Delta-E        Max-DP      RMS-DP      [F,P]     Damp
               ***  Starting incremental Fock matrix formation  ***
  0  -1339.4210131081   0.000000000000 0.06864800  0.00153876  0.1720553 0.7000
  1  -1339.6025597253  -0.181546617202 0.04596893  0.00113870  0.1038143 0.7000
                               ***Turning on DIIS***
  2  -1339.6921281873  -0.089568461967 0.09003471  0.00218766  0.0536598 0.0000
  3  -1339.8281153076  -0.135987120345 0.04437513  0.00090430  0.0391285 0.0000
  4  -1339.8560455007  -0.027930193120 0.00762708  0.00019660  0.0078497 0.0000
                      *** Initiating the SOSCF procedure ***
                           *** Shutting down DIIS ***
                      *** Re-Reading the Fockian *** 
                      *** Removing any level shift *** 
ITER      Energy       Delta-E        Grad      Rot      Max-DP    RMS-DP
  5  -1339.85692659  -0.0008810876  0.001411  0.001411  0.003535  0.000099
               *** Restarting incremental Fock matrix formation ***
  6  -1339.85709587  -0.0001692834  0.001091  0.002912  0.003124  0.000065
  7  -1339.85715260  -0.0000567317  0.000658  0.003830  0.003702  0.000064
  8  -1339.85716908  -0.0000164807  0.000217  0.000507  0.000673  0.000019
  9  -1339.85717264  -0.0000035565  0.000100  0.000257  0.000264  0.000008
                 **** Energy Check signals convergence ****
              ***Rediagonalizing the Fockian in SOSCF/NRSCF***

               *****************************************************
               *                     SUCCESS                       *
               *           SCF CONVERGED AFTER  10 CYCLES          *
               *****************************************************

Setting up the final grid:

General Integration Accuracy     IntAcc      ...  4.670
Radial Grid Type                 RadialGrid  ... Gauss-Chebyshev
Angular Grid (max. acc.)         AngularGrid ... Lebedev-302
Angular grid pruning method      GridPruning ... 3 (G Style)
Weight generation scheme         WeightScheme... Becke
Basis function cutoff            BFCut       ...    1.0000e-10
Integration weight cutoff        WCut        ...    1.0000e-14
Grids for H and He will be reduced by one unit

# of grid points (after initial pruning)     ... 161752 (   0.0 sec)
# of grid points (after weights+screening)   ... 142316 (   0.2 sec)
nearest neighbour list constructed           ...    0.0 sec
Grid point re-assignment to atoms done       ...    0.0 sec
Grid point division into batches done        ...    0.5 sec
Reduced shell lists constructed in    0.6 sec

Total number of grid points                  ...   142316
Total number of batches                      ...     2240
Average number of points per batch           ...       63
Average number of grid points per atom       ...     4186
Average number of shells per batch           ...    73.96 (48.02%)
Average number of basis functions per batch  ...   143.42 (44.54%)
Average number of large shells per batch     ...    46.85 (63.35%)
Average number of large basis fcns per batch ...    94.13 (65.63%)
Maximum spatial batch extension              ...  12.90, 13.62, 15.73 au
Average spatial batch extension              ...   0.13,  0.14,  0.14 au

Final grid set up in    1.0 sec
Final integration                            ... done (   0.3 sec)
Change in XC energy                          ...     0.006800394
Integrated number of electrons               ...   133.999895926
Previous integrated no of electrons          ...   134.009948621

----------------
TOTAL SCF ENERGY
----------------

Total Energy       :        -1339.85037263 Eh          -36459.18219 eV

Components:
Nuclear Repulsion  :         1304.30997373 Eh           35492.07877 eV
Electronic Energy  :        -2644.16034636 Eh          -71951.26096 eV
One Electron Energy:        -4425.40499698 Eh         -120421.39207 eV
Two Electron Energy:         1781.24465062 Eh           48470.13112 eV

Virial components:
Potential Energy   :        -2671.28065274 Eh          -72689.24201 eV
Kinetic Energy     :         1331.43028011 Eh           36230.05982 eV
Virial Ratio       :            2.00632410


DFT components:
N(Alpha)           :       66.999947963142 electrons
N(Beta)            :       66.999947963142 electrons
N(Total)           :      133.999895926284 electrons
E(XC)              :      -94.241401846031 Eh       
DFET-embed. en.    :        0.000000000000 Eh       

---------------
SCF CONVERGENCE
---------------

  Last Energy change         ...   -3.8606e-07  Tolerance :   1.0000e-06
  Last MAX-Density change    ...    1.6978e-04  Tolerance :   1.0000e-05
  Last RMS-Density change    ...    3.5782e-06  Tolerance :   1.0000e-06
  Last Orbital Gradient      ...    4.8819e-05  Tolerance :   5.0000e-05
  Last Orbital Rotation      ...    1.3951e-04  Tolerance :   5.0000e-05

             **** THE GBW FILE WAS UPDATED (config_5012.gbw) ****
             **** DENSITY FILE WAS UPDATED (config_5012.scfp) ****
             **** ENERGY FILE WAS UPDATED (config_5012.en.tmp) ****
             **** THE GBW FILE WAS UPDATED (config_5012.gbw) ****
             **** DENSITY FILE WAS UPDATED (config_5012.scfp) ****
----------------
ORBITAL ENERGIES
----------------

  NO   OCC          E(Eh)            E(eV) 
   0   2.0000     -88.970230     -2421.0030 
   1   2.0000     -88.962107     -2420.7820 
   2   2.0000     -10.329242      -281.0730 
   3   2.0000     -10.327773      -281.0330 
   4   2.0000     -10.318567      -280.7825 
   5   2.0000     -10.314999      -280.6854 
   6   2.0000     -10.307813      -280.4899 
   7   2.0000     -10.304626      -280.4031 
   8   2.0000     -10.298405      -280.2338 
   9   2.0000     -10.297144      -280.1995 
  10   2.0000     -10.294149      -280.1180 
  11   2.0000     -10.290852      -280.0283 
  12   2.0000     -10.280032      -279.7339 
  13   2.0000     -10.278144      -279.6825 
  14   2.0000     -10.277799      -279.6731 
  15   2.0000     -10.263407      -279.2815 
  16   2.0000      -8.085012      -220.0044 
  17   2.0000      -8.077060      -219.7880 
  18   2.0000      -6.043367      -164.4484 
  19   2.0000      -6.039356      -164.3392 
  20   2.0000      -6.036110      -164.2509 
  21   2.0000      -6.035623      -164.2377 
  22   2.0000      -6.031519      -164.1260 
  23   2.0000      -6.027759      -164.0237 
  24   2.0000      -1.004693       -27.3391 
  25   2.0000      -0.984003       -26.7761 
  26   2.0000      -0.912429       -24.8285 
  27   2.0000      -0.907681       -24.6993 
  28   2.0000      -0.868583       -23.6353 
  29   2.0000      -0.851715       -23.1763 
  30   2.0000      -0.840137       -22.8613 
  31   2.0000      -0.817033       -22.2326 
  32   2.0000      -0.782998       -21.3065 
  33   2.0000      -0.767954       -20.8971 
  34   2.0000      -0.707371       -19.2485 
  35   2.0000      -0.692721       -18.8499 
  36   2.0000      -0.681469       -18.5437 
  37   2.0000      -0.663271       -18.0485 
  38   2.0000      -0.640367       -17.4253 
  39   2.0000      -0.623806       -16.9746 
  40   2.0000      -0.597894       -16.2695 
  41   2.0000      -0.568363       -15.4659 
  42   2.0000      -0.560353       -15.2480 
  43   2.0000      -0.546879       -14.8813 
  44   2.0000      -0.534541       -14.5456 
  45   2.0000      -0.524261       -14.2659 
  46   2.0000      -0.516931       -14.0664 
  47   2.0000      -0.508249       -13.8302 
  48   2.0000      -0.506295       -13.7770 
  49   2.0000      -0.498235       -13.5577 
  50   2.0000      -0.488101       -13.2819 
  51   2.0000      -0.484421       -13.1818 
  52   2.0000      -0.472426       -12.8554 
  53   2.0000      -0.466260       -12.6876 
  54   2.0000      -0.459675       -12.5084 
  55   2.0000      -0.448746       -12.2110 
  56   2.0000      -0.440662       -11.9910 
  57   2.0000      -0.432264       -11.7625 
  58   2.0000      -0.428916       -11.6714 
  59   2.0000      -0.420128       -11.4323 
  60   2.0000      -0.417264       -11.3543 
  61   2.0000      -0.411477       -11.1969 
  62   2.0000      -0.402716       -10.9585 
  63   2.0000      -0.338661        -9.2154 
  64   2.0000      -0.334412        -9.0998 
  65   2.0000      -0.318610        -8.6698 
  66   2.0000      -0.301635        -8.2079 
  67   0.0000       0.040355         1.0981 
  68   0.0000       0.055469         1.5094 
  69   0.0000       0.106430         2.8961 
  70   0.0000       0.118223         3.2170 
  71   0.0000       0.125829         3.4240 
  72   0.0000       0.136184         3.7058 
  73   0.0000       0.152172         4.1408 
  74   0.0000       0.157631         4.2894 
  75   0.0000       0.164332         4.4717 
  76   0.0000       0.170555         4.6410 
  77   0.0000       0.182490         4.9658 
  78   0.0000       0.186181         5.0662 
  79   0.0000       0.188890         5.1399 
  80   0.0000       0.198210         5.3936 
  81   0.0000       0.208588         5.6760 
  82   0.0000       0.214316         5.8318 
  83   0.0000       0.222925         6.0661 
  84   0.0000       0.231029         6.2866 
  85   0.0000       0.232405         6.3241 
  86   0.0000       0.239169         6.5081 
  87   0.0000       0.244320         6.6483 
  88   0.0000       0.247054         6.7227 
  89   0.0000       0.251746         6.8504 
  90   0.0000       0.257032         6.9942 
  91   0.0000       0.265321         7.2198 
  92   0.0000       0.274506         7.4697 
  93   0.0000       0.304399         8.2831 
  94   0.0000       0.312231         8.4962 
  95   0.0000       0.320186         8.7127 
  96   0.0000       0.324620         8.8334 
  97   0.0000       0.334668         9.1068 
  98   0.0000       0.347848         9.4654 
  99   0.0000       0.356697         9.7062 
 100   0.0000       0.384960        10.4753 
 101   0.0000       0.385963        10.5026 
 102   0.0000       0.421705        11.4752 
 103   0.0000       0.428642        11.6639 
 104   0.0000       0.437587        11.9074 
 105   0.0000       0.445194        12.1143 
 106   0.0000       0.453089        12.3292 
 107   0.0000       0.473280        12.8786 
 108   0.0000       0.483336        13.1522 
 109   0.0000       0.492907        13.4127 
 110   0.0000       0.502997        13.6873 
 111   0.0000       0.514322        13.9954 
 112   0.0000       0.524345        14.2682 
 113   0.0000       0.526206        14.3188 
 114   0.0000       0.529215        14.4007 
 115   0.0000       0.538272        14.6471 
 116   0.0000       0.543277        14.7833 
 117   0.0000       0.553638        15.0653 
 118   0.0000       0.558158        15.1883 
 119   0.0000       0.566601        15.4180 
 120   0.0000       0.577831        15.7236 
 121   0.0000       0.584909        15.9162 
 122   0.0000       0.596573        16.2336 
 123   0.0000       0.604591        16.4518 
 124   0.0000       0.619081        16.8461 
 125   0.0000       0.622399        16.9363 
 126   0.0000       0.634360        17.2618 
 127   0.0000       0.648961        17.6591 
 128   0.0000       0.658076        17.9071 
 129   0.0000       0.667725        18.1697 
 130   0.0000       0.671964        18.2851 
 131   0.0000       0.688253        18.7283 
 132   0.0000       0.692581        18.8461 
 133   0.0000       0.694683        18.9033 
 134   0.0000       0.700610        19.0646 
 135   0.0000       0.711934        19.3727 
 136   0.0000       0.721362        19.6293 
 137   0.0000       0.725514        19.7422 
 138   0.0000       0.737962        20.0810 
 139   0.0000       0.740176        20.1412 
 140   0.0000       0.744483        20.2584 
 141   0.0000       0.747699        20.3459 
 142   0.0000       0.753552        20.5052 
 143   0.0000       0.756239        20.5783 
 144   0.0000       0.758091        20.6287 
 145   0.0000       0.767349        20.8806 
 146   0.0000       0.773689        21.0531 
 147   0.0000       0.775117        21.0920 
 148   0.0000       0.775724        21.1085 
 149   0.0000       0.787522        21.4296 
 150   0.0000       0.789578        21.4855 
 151   0.0000       0.795953        21.6590 
 152   0.0000       0.799361        21.7517 
 153   0.0000       0.801452        21.8086 
 154   0.0000       0.806744        21.9526 
 155   0.0000       0.811752        22.0889 
 156   0.0000       0.812876        22.1195 
 157   0.0000       0.823532        22.4095 
 158   0.0000       0.824779        22.4434 
 159   0.0000       0.825363        22.4593 
 160   0.0000       0.830088        22.5878 
 161   0.0000       0.836024        22.7494 
 162   0.0000       0.840469        22.8703 
 163   0.0000       0.845230        22.9999 
 164   0.0000       0.855723        23.2854 
 165   0.0000       0.876060        23.8388 
 166   0.0000       0.880717        23.9655 
 167   0.0000       0.888663        24.1818 
 168   0.0000       0.895836        24.3769 
 169   0.0000       0.902939        24.5702 
 170   0.0000       0.907841        24.7036 
 171   0.0000       0.921397        25.0725 
 172   0.0000       0.925418        25.1819 
 173   0.0000       0.934263        25.4226 
 174   0.0000       0.950982        25.8775 
 175   0.0000       0.967949        26.3392 
 176   0.0000       0.986929        26.8557 
 177   0.0000       0.994282        27.0558 
 178   0.0000       1.009127        27.4597 
 179   0.0000       1.026160        27.9232 
 180   0.0000       1.034705        28.1558 
 181   0.0000       1.075029        29.2530 
 182   0.0000       1.093770        29.7630 
 183   0.0000       1.114793        30.3351 
 184   0.0000       1.123855        30.5817 
 185   0.0000       1.126887        30.6642 
 186   0.0000       1.143828        31.1251 
 187   0.0000       1.166648        31.7461 
 188   0.0000       1.181320        32.1453 
 189   0.0000       1.200746        32.6740 
 190   0.0000       1.211369        32.9630 
 191   0.0000       1.238423        33.6992 
 192   0.0000       1.252800        34.0904 
 193   0.0000       1.274356        34.6770 
 194   0.0000       1.282275        34.8925 
 195   0.0000       1.290282        35.1104 
 196   0.0000       1.308392        35.6032 
 197   0.0000       1.338305        36.4171 
 198   0.0000       1.346416        36.6378 
 199   0.0000       1.350674        36.7537 
 200   0.0000       1.387564        37.7575 
 201   0.0000       1.400370        38.1060 
 202   0.0000       1.413289        38.4575 
 203   0.0000       1.430339        38.9215 
 204   0.0000       1.456468        39.6325 
 205   0.0000       1.470084        40.0030 
 206   0.0000       1.494559        40.6690 
 207   0.0000       1.520498        41.3749 
 208   0.0000       1.530487        41.6467 
 209   0.0000       1.571967        42.7754 
 210   0.0000       1.580037        42.9950 
 211   0.0000       1.602047        43.5939 
 212   0.0000       1.629402        44.3383 
 213   0.0000       1.633450        44.4484 
 214   0.0000       1.657739        45.1094 
 215   0.0000       1.662800        45.2471 
 216   0.0000       1.676711        45.6256 
 217   0.0000       1.708943        46.5027 
 218   0.0000       1.741202        47.3805 
 219   0.0000       1.755470        47.7688 
 220   0.0000       1.774843        48.2959 
 221   0.0000       1.787961        48.6529 
 222   0.0000       1.796818        48.8939 
 223   0.0000       1.817413        49.4543 
 224   0.0000       1.823444        49.6184 
 225   0.0000       1.832487        49.8645 
 226   0.0000       1.840288        50.0768 
 227   0.0000       1.849873        50.3376 
 228   0.0000       1.855360        50.4869 
 229   0.0000       1.869865        50.8816 
 230   0.0000       1.871172        50.9172 
 231   0.0000       1.882781        51.2331 
 232   0.0000       1.888246        51.3818 
 233   0.0000       1.902650        51.7737 
 234   0.0000       1.905290        51.8456 
 235   0.0000       1.915913        52.1346 
 236   0.0000       1.917208        52.1699 
 237   0.0000       1.930126        52.5214 
 238   0.0000       1.935742        52.6742 
 239   0.0000       1.940204        52.7956 
 240   0.0000       1.959745        53.3274 
 241   0.0000       1.966283        53.5053 
 242   0.0000       1.974103        53.7181 
 243   0.0000       1.981764        53.9265 
 244   0.0000       1.992151        54.2092 
 245   0.0000       2.001194        54.4553 
 246   0.0000       2.003626        54.5214 
 247   0.0000       2.021011        54.9945 
 248   0.0000       2.033023        55.3214 
 249   0.0000       2.050812        55.8054 
 250   0.0000       2.053427        55.8766 
 251   0.0000       2.059039        56.0293 
 252   0.0000       2.068301        56.2813 
 253   0.0000       2.085222        56.7418 
 254   0.0000       2.089443        56.8566 
 255   0.0000       2.104529        57.2671 
 256   0.0000       2.109094        57.3914 
 257   0.0000       2.134678        58.0875 
 258   0.0000       2.142565        58.3022 
 259   0.0000       2.160260        58.7837 
 260   0.0000       2.184013        59.4300 
 261   0.0000       2.187282        59.5190 
 262   0.0000       2.197880        59.8074 
 263   0.0000       2.202110        59.9225 
 264   0.0000       2.214584        60.2619 
 265   0.0000       2.234236        60.7966 
 266   0.0000       2.255207        61.3673 
 267   0.0000       2.270709        61.7891 
 268   0.0000       2.280132        62.0455 
 269   0.0000       2.305248        62.7290 
 270   0.0000       2.321276        63.1651 
 271   0.0000       2.329365        63.3852 
 272   0.0000       2.370216        64.4969 
 273   0.0000       2.383041        64.8458 
 274   0.0000       2.410869        65.6031 
 275   0.0000       2.419944        65.8500 
 276   0.0000       2.423993        65.9602 
 277   0.0000       2.451801        66.7169 
 278   0.0000       2.466603        67.1197 
 279   0.0000       2.474374        67.3311 
 280   0.0000       2.474970        67.3474 
 281   0.0000       2.505280        68.1721 
 282   0.0000       2.512628        68.3721 
 283   0.0000       2.517514        68.5050 
 284   0.0000       2.539552        69.1047 
 285   0.0000       2.555602        69.5415 
 286   0.0000       2.574996        70.0692 
 287   0.0000       2.582185        70.2648 
 288   0.0000       2.586632        70.3858 
 289   0.0000       2.606210        70.9186 
 290   0.0000       2.626842        71.4800 
 291   0.0000       2.655994        72.2733 
 292   0.0000       2.674385        72.7737 
 293   0.0000       2.683627        73.0252 
 294   0.0000       2.702413        73.5364 
 295   0.0000       2.737206        74.4832 
 296   0.0000       2.755103        74.9702 
 297   0.0000       2.770689        75.3943 
 298   0.0000       2.781849        75.6979 
 299   0.0000       2.842935        77.3602 
 300   0.0000       2.853369        77.6441 
 301   0.0000       2.859912        77.8222 
 302   0.0000       2.901927        78.9655 
 303   0.0000       2.919500        79.4436 
 304   0.0000       2.975601        80.9702 
 305   0.0000       2.980251        81.0967 
 306   0.0000       2.995113        81.5012 
 307   0.0000       3.002283        81.6963 
 308   0.0000       3.026613        82.3583 
 309   0.0000       3.051562        83.0372 
 310   0.0000       3.059473        83.2525 
 311   0.0000       3.067759        83.4780 
 312   0.0000       3.086676        83.9927 
 313   0.0000       3.109451        84.6125 
 314   0.0000       3.114996        84.7633 
 315   0.0000       3.173114        86.3448 
 316   0.0000       3.194973        86.9396 
 317   0.0000       3.205609        87.2291 
 318   0.0000       3.222214        87.6809 
 319   0.0000       3.293132        89.6107 
 320   0.0000       3.350381        91.1685 
 321   0.0000       3.392948        92.3268 

                    ********************************
                    * MULLIKEN POPULATION ANALYSIS *
                    ********************************

-----------------------
MULLIKEN ATOMIC CHARGES
-----------------------
   0 S :    0.106763
   1 C :   -0.140966
   2 C :   -0.093216
   3 C :    0.012127
   4 C :   -0.145091
   5 H :    0.041050
   6 C :    0.075391
   7 H :    0.044820
   8 H :    0.020770
   9 C :   -0.095247
  10 H :    0.034143
  11 H :    0.026145
  12 C :   -0.065223
  13 H :    0.033910
  14 H :    0.026251
  15 H :    0.049075
  16 S :    0.140689
  17 C :   -0.086974
  18 C :   -0.048856
  19 C :   -0.003062
  20 C :   -0.203850
  21 H :    0.028835
  22 C :    0.103727
  23 H :   -0.004638
  24 H :    0.010478
  25 C :   -0.101077
  26 H :    0.033034
  27 H :    0.039937
  28 C :   -0.027144
  29 H :    0.036460
  30 H :    0.033350
  31 H :    0.006033
  32 H :    0.070884
  33 H :    0.041474
Sum of atomic charges:    0.0000000

--------------------------------
MULLIKEN REDUCED ORBITAL CHARGES
--------------------------------
  0 S s       :     5.842714  s :     5.842714
      pz      :     2.992038  p :     9.945095
      px      :     3.287151
      py      :     3.665907
      dz2     :     0.022918  d :     0.105428
      dxz     :     0.034683
      dyz     :     0.018141
      dx2y2   :     0.016255
      dxy     :     0.013432
  1 C s       :     3.194506  s :     3.194506
      pz      :     0.930879  p :     2.911933
      px      :     0.884766
      py      :     1.096288
      dz2     :     0.008421  d :     0.034527
      dxz     :     0.010155
      dyz     :     0.003073
      dx2y2   :     0.005225
      dxy     :     0.007653
  2 C s       :     3.100196  s :     3.100196
      pz      :     0.963876  p :     2.950223
      px      :     0.967456
      py      :     1.018892
      dz2     :     0.009279  d :     0.042797
      dxz     :     0.013640
      dyz     :     0.006207
      dx2y2   :     0.005882
      dxy     :     0.007788
  3 C s       :     3.183911  s :     3.183911
      pz      :     0.869649  p :     2.768348
      px      :     0.899309
      py      :     0.999390
      dz2     :     0.008972  d :     0.035615
      dxz     :     0.010140
      dyz     :     0.004167
      dx2y2   :     0.005286
      dxy     :     0.007050
  4 C s       :     3.060069  s :     3.060069
      pz      :     0.967809  p :     3.039784
      px      :     0.975967
      py      :     1.096008
      dz2     :     0.011612  d :     0.045238
      dxz     :     0.014306
      dyz     :     0.004973
      dx2y2   :     0.005533
      dxy     :     0.008814
  5 H s       :     0.936828  s :     0.936828
      pz      :     0.010387  p :     0.022122
      px      :     0.007387
      py      :     0.004348
  6 C s       :     2.960662  s :     2.960662
      pz      :     0.991231  p :     2.928175
      px      :     0.919453
      py      :     1.017491
      dz2     :     0.009715  d :     0.035773
      dxz     :     0.006400
      dyz     :     0.003270
      dx2y2   :     0.010569
      dxy     :     0.005819
  7 H s       :     0.932421  s :     0.932421
      pz      :     0.004803  p :     0.022760
      px      :     0.004465
      py      :     0.013492
  8 H s       :     0.956050  s :     0.956050
      pz      :     0.012937  p :     0.023180
      px      :     0.004171
      py      :     0.006072
  9 C s       :     3.072697  s :     3.072697
      pz      :     1.005302  p :     2.987331
      px      :     1.002784
      py      :     0.979245
      dz2     :     0.007719  d :     0.035219
      dxz     :     0.004490
      dyz     :     0.007836
      dx2y2   :     0.008716
      dxy     :     0.006459
 10 H s       :     0.944021  s :     0.944021
      pz      :     0.005211  p :     0.021836
      px      :     0.012553
      py      :     0.004071
 11 H s       :     0.950870  s :     0.950870
      pz      :     0.012063  p :     0.022986
      px      :     0.005320
      py      :     0.005602
 12 C s       :     3.033541  s :     3.033541
      pz      :     1.043946  p :     3.004626
      px      :     1.011046
      py      :     0.949635
      dz2     :     0.002561  d :     0.027056
      dxz     :     0.005679
      dyz     :     0.007113
      dx2y2   :     0.007283
      dxy     :     0.004419
 13 H s       :     0.943273  s :     0.943273
      pz      :     0.010848  p :     0.022817
      px      :     0.005318
      py      :     0.006651
 14 H s       :     0.949492  s :     0.949492
      pz      :     0.007603  p :     0.024257
      px      :     0.011035
      py      :     0.005619
 15 H s       :     0.927188  s :     0.927188
      pz      :     0.007386  p :     0.023737
      px      :     0.011975
      py      :     0.004376
 16 S s       :     5.837137  s :     5.837137
      pz      :     3.272806  p :     9.908865
      px      :     3.414548
      py      :     3.221511
      dz2     :     0.025484  d :     0.113308
      dxz     :     0.026198
      dyz     :     0.016568
      dx2y2   :     0.027209
      dxy     :     0.017851
 17 C s       :     3.138672  s :     3.138672
      pz      :     0.951220  p :     2.913740
      px      :     0.970423
      py      :     0.992098
      dz2     :     0.005315  d :     0.034561
      dxz     :     0.006010
      dyz     :     0.008775
      dx2y2   :     0.008692
      dxy     :     0.005770
 18 C s       :     3.194134  s :     3.194134
      pz      :     0.926074  p :     2.821915
      px      :     0.965736
      py      :     0.930105
      dz2     :     0.006009  d :     0.032807
      dxz     :     0.005379
      dyz     :     0.008098
      dx2y2   :     0.006524
      dxy     :     0.006797
 19 C s       :     3.060281  s :     3.060281
      pz      :     0.956175  p :     2.900502
      px      :     0.968808
      py      :     0.975519
      dz2     :     0.008509  d :     0.042279
      dxz     :     0.005321
      dyz     :     0.011281
      dx2y2   :     0.008957
      dxy     :     0.008211
 20 C s       :     3.085581  s :     3.085581
      pz      :     1.069051  p :     3.076260
      px      :     1.078748
      py      :     0.928462
      dz2     :     0.008410  d :     0.042008
      dxz     :     0.007438
      dyz     :     0.009615
      dx2y2   :     0.010285
      dxy     :     0.006260
 21 H s       :     0.947468  s :     0.947468
      pz      :     0.010370  p :     0.023696
      px      :     0.009690
      py      :     0.003636
 22 C s       :     2.891627  s :     2.891627
      pz      :     1.034637  p :     2.967798
      px      :     0.991780
      py      :     0.941381
      dz2     :     0.004757  d :     0.036848
      dxz     :     0.009764
      dyz     :     0.005108
      dx2y2   :     0.008963
      dxy     :     0.008256
 23 H s       :     0.979270  s :     0.979270
      pz      :     0.010675  p :     0.025368
      px      :     0.009592
      py      :     0.005101
 24 H s       :     0.964218  s :     0.964218
      pz      :     0.012976  p :     0.025304
      px      :     0.007656
      py      :     0.004672
 25 C s       :     3.080503  s :     3.080503
      pz      :     0.996018  p :     2.983317
      px      :     0.993735
      py      :     0.993564
      dz2     :     0.009538  d :     0.037257
      dxz     :     0.005091
      dyz     :     0.006558
      dx2y2   :     0.007030
      dxy     :     0.009040
 26 H s       :     0.943695  s :     0.943695
      pz      :     0.005900  p :     0.023270
      px      :     0.010559
      py      :     0.006811
 27 H s       :     0.940039  s :     0.940039
      pz      :     0.012951  p :     0.020024
      px      :     0.003663
      py      :     0.003410
 28 C s       :     2.983244  s :     2.983244
      pz      :     0.994285  p :     3.013081
      px      :     1.022742
      py      :     0.996053
      dz2     :     0.007215  d :     0.030820
      dxz     :     0.003589
      dyz     :     0.006114
      dx2y2   :     0.003650
      dxy     :     0.010252
 29 H s       :     0.940097  s :     0.940097
      pz      :     0.013121  p :     0.023443
      px      :     0.005499
      py      :     0.004822
 30 H s       :     0.942579  s :     0.942579
      pz      :     0.004861  p :     0.024071
      px      :     0.012262
      py      :     0.006948
 31 H s       :     0.966548  s :     0.966548
      pz      :     0.007672  p :     0.027419
      px      :     0.010453
      py      :     0.009295
 32 H s       :     0.906795  s :     0.906795
      pz      :     0.015063  p :     0.022322
      px      :     0.002374
      py      :     0.004884
 33 H s       :     0.933758  s :     0.933758
      pz      :     0.009195  p :     0.024768
      px      :     0.005443
      py      :     0.010130


                     *******************************
                     * LOEWDIN POPULATION ANALYSIS *
                     *******************************

----------------------
LOEWDIN ATOMIC CHARGES
----------------------
   0 S :    0.394007
   1 C :   -0.201962
   2 C :   -0.069478
   3 C :   -0.068748
   4 C :   -0.190976
   5 H :    0.041474
   6 C :   -0.037425
   7 H :    0.038662
   8 H :    0.027670
   9 C :   -0.043667
  10 H :    0.030288
  11 H :    0.022092
  12 C :   -0.074925
  13 H :    0.029578
  14 H :    0.026397
  15 H :    0.026380
  16 S :    0.438389
  17 C :   -0.189816
  18 C :   -0.069710
  19 C :   -0.044511
  20 C :   -0.211180
  21 H :    0.035794
  22 C :   -0.038033
  23 H :    0.026330
  24 H :    0.027817
  25 C :   -0.043958
  26 H :    0.026012
  27 H :    0.028718
  28 C :   -0.058086
  29 H :    0.031006
  30 H :    0.024284
  31 H :    0.009873
  32 H :    0.036643
  33 H :    0.021064

-------------------------------
LOEWDIN REDUCED ORBITAL CHARGES
-------------------------------
  0 S s       :     5.512477  s :     5.512477
      pz      :     3.006981  p :     9.963357
      px      :     3.329389
      py      :     3.626988
      dz2     :     0.030249  d :     0.130159
      dxz     :     0.044377
      dyz     :     0.022318
      dx2y2   :     0.018988
      dxy     :     0.014227
  1 C s       :     2.939818  s :     2.939818
      pz      :     1.054139  p :     3.180288
      px      :     1.027557
      py      :     1.098592
      dz2     :     0.021230  d :     0.081856
      dxz     :     0.027145
      dyz     :     0.004880
      dx2y2   :     0.012755
      dxy     :     0.015846
  2 C s       :     2.865923  s :     2.865923
      pz      :     1.049136  p :     3.096957
      px      :     1.052450
      py      :     0.995372
      dz2     :     0.026014  d :     0.106598
      dxz     :     0.038213
      dyz     :     0.012750
      dx2y2   :     0.015335
      dxy     :     0.014287
  3 C s       :     2.873119  s :     2.873119
      pz      :     1.031610  p :     3.102175
      px      :     1.065040
      py      :     1.005525
      dz2     :     0.024700  d :     0.093454
      dxz     :     0.030956
      dyz     :     0.007950
      dx2y2   :     0.014747
      dxy     :     0.015101
  4 C s       :     2.907608  s :     2.907608
      pz      :     1.000914  p :     3.176038
      px      :     1.091442
      py      :     1.083682
      dz2     :     0.027343  d :     0.107329
      dxz     :     0.035978
      dyz     :     0.011338
      dx2y2   :     0.014433
      dxy     :     0.018238
  5 H s       :     0.895565  s :     0.895565
      pz      :     0.030069  p :     0.062961
      px      :     0.020068
      py      :     0.012824
  6 C s       :     2.825707  s :     2.825707
      pz      :     1.050820  p :     3.121259
      px      :     1.009398
      py      :     1.061041
      dz2     :     0.023819  d :     0.090459
      dxz     :     0.017432
      dyz     :     0.008312
      dx2y2   :     0.027119
      dxy     :     0.013777
  7 H s       :     0.895927  s :     0.895927
      pz      :     0.013029  p :     0.065411
      px      :     0.013871
      py      :     0.038511
  8 H s       :     0.903272  s :     0.903272
      pz      :     0.038197  p :     0.069057
      px      :     0.013561
      py      :     0.017300
  9 C s       :     2.843681  s :     2.843681
      pz      :     1.054917  p :     3.115803
      px      :     1.040486
      py      :     1.020400
      dz2     :     0.018570  d :     0.084184
      dxz     :     0.012099
      dyz     :     0.017313
      dx2y2   :     0.022549
      dxy     :     0.013654
 10 H s       :     0.906493  s :     0.906493
      pz      :     0.014086  p :     0.063219
      px      :     0.035189
      py      :     0.013945
 11 H s       :     0.909377  s :     0.909377
      pz      :     0.035244  p :     0.068532
      px      :     0.014858
      py      :     0.018429
 12 C s       :     2.843036  s :     2.843036
      pz      :     1.084969  p :     3.163986
      px      :     1.067072
      py      :     1.011945
      dz2     :     0.006985  d :     0.067903
      dxz     :     0.014400
      dyz     :     0.016630
      dx2y2   :     0.020234
      dxy     :     0.009654
 13 H s       :     0.907500  s :     0.907500
      pz      :     0.029683  p :     0.062922
      px      :     0.012640
      py      :     0.020599
 14 H s       :     0.905641  s :     0.905641
      pz      :     0.020368  p :     0.067962
      px      :     0.030737
      py      :     0.016858
 15 H s       :     0.905022  s :     0.905022
      pz      :     0.020881  p :     0.068598
      px      :     0.032916
      py      :     0.014801
 16 S s       :     5.496589  s :     5.496589
      pz      :     3.261688  p :     9.924322
      px      :     3.414684
      py      :     3.247950
      dz2     :     0.031078  d :     0.140701
      dxz     :     0.034015
      dyz     :     0.021145
      dx2y2   :     0.034247
      dxy     :     0.020216
 17 C s       :     2.930008  s :     2.930008
      pz      :     1.044086  p :     3.178781
      px      :     1.041273
      py      :     1.093422
      dz2     :     0.012492  d :     0.081027
      dxz     :     0.012921
      dyz     :     0.020229
      dx2y2   :     0.021120
      dxy     :     0.014265
 18 C s       :     2.880204  s :     2.880204
      pz      :     1.030079  p :     3.105023
      px      :     1.032089
      py      :     1.042855
      dz2     :     0.015326  d :     0.084483
      dxz     :     0.012450
      dyz     :     0.021528
      dx2y2   :     0.016969
      dxy     :     0.018210
 19 C s       :     2.865052  s :     2.865052
      pz      :     1.023059  p :     3.073150
      px      :     1.008784
      py      :     1.041307
      dz2     :     0.020116  d :     0.106309
      dxz     :     0.013993
      dyz     :     0.029263
      dx2y2   :     0.022488
      dxy     :     0.020450
 20 C s       :     2.912944  s :     2.912944
      pz      :     1.079057  p :     3.197916
      px      :     1.095843
      py      :     1.023016
      dz2     :     0.020135  d :     0.100320
      dxz     :     0.018821
      dyz     :     0.022577
      dx2y2   :     0.023299
      dxy     :     0.015488
 21 H s       :     0.894355  s :     0.894355
      pz      :     0.029894  p :     0.069851
      px      :     0.027974
      py      :     0.011984
 22 C s       :     2.803557  s :     2.803557
      pz      :     1.091906  p :     3.140803
      px      :     1.043204
      py      :     1.005693
      dz2     :     0.013177  d :     0.093673
      dxz     :     0.024380
      dyz     :     0.011529
      dx2y2   :     0.022606
      dxy     :     0.021981
 23 H s       :     0.898419  s :     0.898419
      pz      :     0.028740  p :     0.075251
      px      :     0.029056
      py      :     0.017455
 24 H s       :     0.897609  s :     0.897609
      pz      :     0.034673  p :     0.074574
      px      :     0.023582
      py      :     0.016319
 25 C s       :     2.841300  s :     2.841300
      pz      :     1.040333  p :     3.113233
      px      :     1.036557
      py      :     1.036343
      dz2     :     0.023834  d :     0.089425
      dxz     :     0.010553
      dyz     :     0.015961
      dx2y2   :     0.016258
      dxy     :     0.022819
 26 H s       :     0.906712  s :     0.906712
      pz      :     0.016924  p :     0.067276
      px      :     0.031004
      py      :     0.019348
 27 H s       :     0.912745  s :     0.912745
      pz      :     0.036366  p :     0.058537
      px      :     0.010774
      py      :     0.011397
 28 C s       :     2.813716  s :     2.813716
      pz      :     1.047101  p :     3.165460
      px      :     1.075901
      py      :     1.042458
      dz2     :     0.018347  d :     0.078909
      dxz     :     0.008880
      dyz     :     0.016831
      dx2y2   :     0.010284
      dxy     :     0.024567
 29 H s       :     0.906107  s :     0.906107
      pz      :     0.035061  p :     0.062887
      px      :     0.014330
      py      :     0.013497
 30 H s       :     0.907310  s :     0.907310
      pz      :     0.013360  p :     0.068407
      px      :     0.033608
      py      :     0.021439
 31 H s       :     0.911305  s :     0.911305
      pz      :     0.022164  p :     0.078822
      px      :     0.029321
      py      :     0.027336
 32 H s       :     0.894410  s :     0.894410
      pz      :     0.044003  p :     0.068947
      px      :     0.009450
      py      :     0.015493
 33 H s       :     0.899251  s :     0.899251
      pz      :     0.030640  p :     0.079686
      px      :     0.019119
      py      :     0.029927


                      *****************************
                      * MAYER POPULATION ANALYSIS *
                      *****************************

  NA   - Mulliken gross atomic population
  ZA   - Total nuclear charge
  QA   - Mulliken gross atomic charge
  VA   - Mayer's total valence
  BVA  - Mayer's bonded valence
  FA   - Mayer's free valence

  ATOM       NA         ZA         QA         VA         BVA        FA
  0 S     15.8932    16.0000     0.1068     2.4774     2.4774     0.0000
  1 C      6.1410     6.0000    -0.1410     3.8379     3.8379     0.0000
  2 C      6.0932     6.0000    -0.0932     3.9950     3.9950    -0.0000
  3 C      5.9879     6.0000     0.0121     3.9231     3.9231     0.0000
  4 C      6.1451     6.0000    -0.1451     3.9169     3.9169    -0.0000
  5 H      0.9589     1.0000     0.0411     1.0018     1.0018     0.0000
  6 C      5.9246     6.0000     0.0754     3.9554     3.9554     0.0000
  7 H      0.9552     1.0000     0.0448     0.9790     0.9790    -0.0000
  8 H      0.9792     1.0000     0.0208     0.9907     0.9907     0.0000
  9 C      6.0952     6.0000    -0.0952     4.0871     4.0871    -0.0000
 10 H      0.9659     1.0000     0.0341     0.9798     0.9798     0.0000
 11 H      0.9739     1.0000     0.0261     0.9766     0.9766     0.0000
 12 C      6.0652     6.0000    -0.0652     3.9750     3.9750    -0.0000
 13 H      0.9661     1.0000     0.0339     0.9880     0.9880     0.0000
 14 H      0.9737     1.0000     0.0263     0.9840     0.9840    -0.0000
 15 H      0.9509     1.0000     0.0491     0.9998     0.9998    -0.0000
 16 S     15.8593    16.0000     0.1407     2.5218     2.5218     0.0000
 17 C      6.0870     6.0000    -0.0870     3.8572     3.8572    -0.0000
 18 C      6.0489     6.0000    -0.0489     3.9517     3.9517    -0.0000
 19 C      6.0031     6.0000    -0.0031     4.0315     4.0315    -0.0000
 20 C      6.2039     6.0000    -0.2039     3.8971     3.8971    -0.0000
 21 H      0.9712     1.0000     0.0288     0.9951     0.9951     0.0000
 22 C      5.8963     6.0000     0.1037     3.9364     3.9364    -0.0000
 23 H      1.0046     1.0000    -0.0046     0.9888     0.9888    -0.0000
 24 H      0.9895     1.0000     0.0105     1.0031     1.0031    -0.0000
 25 C      6.1011     6.0000    -0.1011     4.0621     4.0621    -0.0000
 26 H      0.9670     1.0000     0.0330     0.9896     0.9896     0.0000
 27 H      0.9601     1.0000     0.0399     0.9744     0.9744    -0.0000
 28 C      6.0271     6.0000    -0.0271     3.9999     3.9999     0.0000
 29 H      0.9635     1.0000     0.0365     0.9956     0.9956    -0.0000
 30 H      0.9666     1.0000     0.0334     0.9876     0.9876     0.0000
 31 H      0.9940     1.0000     0.0060     0.9882     0.9882     0.0000
 32 H      0.9291     1.0000     0.0709     0.9967     0.9967     0.0000
 33 H      0.9585     1.0000     0.0415     0.9991     0.9991     0.0000

  Mayer bond orders larger than 0.100000
B(  0-S ,  1-C ) :   1.1586 B(  0-S ,  4-C ) :   1.1170 B(  1-C ,  2-C ) :   1.6051 
B(  1-C , 32-H ) :   0.9638 B(  2-C ,  3-C ) :   1.2102 B(  2-C ,  6-C ) :   1.0315 
B(  3-C ,  4-C ) :   1.6364 B(  3-C ,  5-H ) :   0.9714 B(  4-C , 20-C ) :   1.0233 
B(  6-C ,  7-H ) :   0.9364 B(  6-C ,  8-H ) :   0.9420 B(  6-C ,  9-C ) :   1.0758 
B(  9-C , 10-H ) :   0.9581 B(  9-C , 11-H ) :   0.9466 B(  9-C , 12-C ) :   1.0686 
B( 12-C , 13-H ) :   0.9773 B( 12-C , 14-H ) :   0.9746 B( 12-C , 15-H ) :   0.9723 
B( 16-S , 17-C ) :   1.1832 B( 16-S , 20-C ) :   1.1560 B( 17-C , 18-C ) :   1.5888 
B( 17-C , 20-C ) :   0.1023 B( 17-C , 33-H ) :   0.9688 B( 18-C , 19-C ) :   1.2583 
B( 18-C , 21-H ) :   0.9888 B( 19-C , 20-C ) :   1.5590 B( 19-C , 22-C ) :   1.0623 
B( 22-C , 23-H ) :   0.9251 B( 22-C , 24-H ) :   0.9234 B( 22-C , 25-C ) :   1.0441 
B( 25-C , 26-H ) :   0.9675 B( 25-C , 27-H ) :   0.9572 B( 25-C , 28-C ) :   1.0678 
B( 28-C , 29-H ) :   0.9746 B( 28-C , 30-H ) :   0.9744 B( 28-C , 31-H ) :   0.9757 


-------
TIMINGS
-------

Total SCF time: 0 days 0 hours 0 min 30 sec 

Total time                  ....      30.999 sec
Sum of individual times     ....      29.953 sec  ( 96.6%)

Fock matrix formation       ....      27.964 sec  ( 90.2%)
  XC integration            ....       1.652 sec  (  5.9% of F)
    Basis function eval.    ....       0.208 sec  ( 12.6% of XC)
    Density eval.           ....       0.158 sec  (  9.6% of XC)
    XC-Functional eval.     ....       0.189 sec  ( 11.4% of XC)
    XC-Potential eval.      ....       0.192 sec  ( 11.6% of XC)
Diagonalization             ....       0.171 sec  (  0.6%)
Density matrix formation    ....       0.029 sec  (  0.1%)
Population analysis         ....       0.074 sec  (  0.2%)
Initial guess               ....       0.207 sec  (  0.7%)
Orbital Transformation      ....       0.000 sec  (  0.0%)
Orbital Orthonormalization  ....       0.000 sec  (  0.0%)
DIIS solution               ....       0.153 sec  (  0.5%)
SOSCF solution              ....       0.124 sec  (  0.4%)
Grid generation             ....       1.232 sec  (  4.0%)


-------------------------------------------------------------------------------
                          DFT DISPERSION CORRECTION                            
                                                                               
                              DFTD3 V3.1  Rev 1                                
                              USING zero damping                               
-------------------------------------------------------------------------------
The omegaB97X-D3 functional is recognized. Fit by Chai et al.
Active option DFTDOPT                   ...         3   

molecular C6(AA) [au] = 14203.815703 


            DFT-D V3
 parameters
 s6 scaling factor         :     1.0000 
 rs6 scaling factor        :     1.2810 
 s8 scaling factor         :     1.0000 
 rs8 scaling factor        :     1.0940 
 Damping factor alpha6     :    14.0000 
 Damping factor alpha8     :    16.0000 
 ad hoc parameters k1-k3   :    16.0000     1.3333    -4.0000 

 Edisp/kcal,au: -9.625954716471  -0.015339933639 
 E6   /kcal   :  -4.422111252 
 E8   /kcal   :  -5.203843464 
 % E8         :  54.060543783 

-------------------------   ----------------
Dispersion correction           -0.015339934
-------------------------   ----------------


-------------------------   --------------------
FINAL SINGLE POINT ENERGY     -1339.865712566204
-------------------------   --------------------


                            ***************************************
                            *     ORCA property calculations      *
                            ***************************************

                                    ---------------------
                                    Active property flags
                                    ---------------------
   (+) Dipole Moment


------------------------------------------------------------------------------
                       ORCA ELECTRIC PROPERTIES CALCULATION
------------------------------------------------------------------------------

Dipole Moment Calculation                       ... on
Quadrupole Moment Calculation                   ... off
Polarizability Calculation                      ... off
GBWName                                         ... config_5012.gbw
Electron density file                           ... config_5012.scfp
The origin for moment calculation is the CENTER OF MASS  = (-6.667603, -40.809437 162.227269)

-------------
DIPOLE MOMENT
-------------
                                X             Y             Z
Electronic contribution:    -13.86499     -13.04578      -2.16698
Nuclear contribution   :     14.14490      13.26454       2.34855
                        -----------------------------------------
Total Dipole Moment    :      0.27991       0.21876       0.18157
                        -----------------------------------------
Magnitude (a.u.)       :      0.39896
Magnitude (Debye)      :      1.01408



--------------------
Rotational spectrum 
--------------------
 
Rotational constants in cm-1:     0.017910     0.009558     0.008100 
Rotational constants in MHz :   536.934947   286.534685   242.826915 

 Dipole components along the rotational axes: 
x,y,z [a.u.] :    -0.077314    -0.124416     0.371098 
x,y,z [Debye]:    -0.196517    -0.316241     0.943256 

 

Timings for individual modules:

Sum of individual times         ...       32.314 sec (=   0.539 min)
GTO integral calculation        ...        0.865 sec (=   0.014 min)   2.7 %
SCF iterations                  ...       31.449 sec (=   0.524 min)  97.3 %
                             ****ORCA TERMINATED NORMALLY****
TOTAL RUN TIME: 0 days 0 hours 0 minutes 33 seconds 49 msec
