
                                 *****************
                                 * O   R   C   A *
                                 *****************

           --- An Ab Initio, DFT and Semiempirical electronic structure package ---

                  #######################################################
                  #                        -***-                        #
                  #          Department of theory and spectroscopy      #
                  #               Directorship: Frank Neese             #
                  #        Max Planck Institute fuer Kohlenforschung    #
                  #                Kaiser Wilhelm Platz 1               #
                  #                 D-45470 Muelheim/Ruhr               #
                  #                      Germany                        #
                  #                                                     #
                  #                  All rights reserved                #
                  #                        -***-                        #
                  #######################################################


                         Program Version 4.2.1 -  RELEASE  -


 With contributions from (in alphabetic order):
   Daniel Aravena         : Magnetic Suceptibility
   Michael Atanasov       : Ab Initio Ligand Field Theory (pilot matlab implementation)
   Alexander A. Auer      : GIAO ZORA, VPT2
   Ute Becker             : Parallelization
   Giovanni Bistoni       : ED, misc. LED, open-shell LED, HFLD
   Martin Brehm           : Molecular dynamics
   Dmytro Bykov           : SCF Hessian
   Vijay G. Chilkuri      : MRCI spin determinant printing, contributions to CSF-ICE
   Dipayan Datta          : RHF DLPNO-CCSD density
   Achintya Kumar Dutta   : EOM-CC, STEOM-CC
   Dmitry Ganyushin       : Spin-Orbit,Spin-Spin,Magnetic field MRCI
   Miquel Garcia          : C-PCM Hessian, Gaussian charge scheme
   Yang Guo               : DLPNO-NEVPT2, CIM, IAO-localization
   Andreas Hansen         : Spin unrestricted coupled pair/coupled cluster methods
   Benjamin Helmich-Paris : CASSCF linear response (MC-RPA)
   Lee Huntington         : MR-EOM, pCC
   Robert Izsak           : Overlap fitted RIJCOSX, COSX-SCS-MP3, EOM
   Christian Kollmar      : KDIIS, OOCD, Brueckner-CCSD(T), CCSD density
   Simone Kossmann        : Meta GGA functionals, TD-DFT gradient, OOMP2, MP2 Hessian
   Martin Krupicka        : AUTO-CI
   Lucas Lang             : DCDCAS
   Dagmar Lenk            : GEPOL surface, SMD
   Dimitrios Liakos       : Extrapolation schemes; Compound Job, initial MDCI parallelization
   Dimitrios Manganas     : Further ROCIS development; embedding schemes
   Dimitrios Pantazis     : SARC Basis sets
   Taras Petrenko         : DFT Hessian,TD-DFT gradient, ASA, ECA, R-Raman, ABS, FL, XAS/XES, NRVS
   Peter Pinski           : DLPNO-MP2, DLPNO-MP2 Gradient
   Christoph Reimann      : Effective Core Potentials
   Marius Retegan         : Local ZFS, SOC
   Christoph Riplinger    : Optimizer, TS searches, QM/MM, DLPNO-CCSD(T), (RO)-DLPNO pert. Triples
   Tobias Risthaus        : Range-separated hybrids, TD-DFT gradient, RPA, STAB
   Michael Roemelt        : Original ROCIS implementation
   Masaaki Saitow         : Open-shell DLPNO-CCSD energy and density
   Barbara Sandhoefer     : DKH picture change effects
   Avijit Sen             : IP-ROCIS
   Kantharuban Sivalingam : CASSCF convergence, NEVPT2, FIC-MRCI
   Bernardo de Souza      : ESD, SOC TD-DFT
   Georgi Stoychev        : AutoAux, RI-MP2 NMR
   Willem Van den Heuvel  : Paramagnetic NMR
   Boris Wezisla          : Elementary symmetry handling
   Frank Wennmohs         : Technical directorship


 We gratefully acknowledge several colleagues who have allowed us to
 interface, adapt or use parts of their codes:
   Stefan Grimme, W. Hujo, H. Kruse,             : VdW corrections, initial TS optimization,
                  C. Bannwarth                     DFT functionals, gCP, sTDA/sTD-DF
   Ed Valeev, F. Pavosevic, A. Kumar             : LibInt (2-el integral package), F12 methods
   Garnet Chan, S. Sharma, J. Yang, R. Olivares  : DMRG
   Ulf Ekstrom                                   : XCFun DFT Library
   Mihaly Kallay                                 : mrcc  (arbitrary order and MRCC methods)
   Andreas Klamt, Michael Diedenhofen            : otool_cosmo (COSMO solvation model)
   Jiri Pittner, Ondrej Demel                    : Mk-CCSD
   Frank Weinhold                                : gennbo (NPA and NBO analysis)
   Christopher J. Cramer and Donald G. Truhlar   : smd solvation model
   Lars Goerigk                                  : TD-DFT with DH, B97 family of functionals
   V. Asgeirsson, H. Jonsson                     : NEB implementation
   FAccTs GmbH                                   : IRC, NEB, NEB-TS, Multilevel, MM, QM/MM, CI optimization
   S Lehtola, MJT Oliveira, MAL Marques          : LibXC Library


 Your calculation uses the libint2 library for the computation of 2-el integrals
 For citations please refer to: http://libint.valeyev.net

 Your ORCA version has been built with support for libXC version: 4.2.3
 For citations please refer to: https://tddft.org/programs/libxc/

 This ORCA versions uses:
   CBLAS   interface :  Fast vector & matrix operations
   LAPACKE interface :  Fast linear algebra routines
   SCALAPACK package :  Parallel linear algebra routines


Your calculation utilizes the atom-pairwise dispersion correction
with the zero-damping scheme (D30)
Cite in your paper:
S.Grimme, J.Antony, S.Ehrlich and H.Krieg, J.Chem.Phys., 132, (2010), 154104 
   

XCFun DFT library Copyright 2009-2010 Ulf Ekstrom and contributors.
See http://admol.org/xcfun for more information. This is free soft-
ware; see the source code for copying conditions. There is ABSOLUTELY
NO WARRANTY; not even for MERCHANTABILITY or FITNESS FOR A PARTICULAR
PURPOSE. For details see the documentation. Scientific users of this 
library should cite U. Ekstrom, L. Visscher, R. Bast, A. J. Thorvald-
sen and K. Ruud; J.Chem.Theor.Comp. 2010, DOI: 10.1021/ct100117s
XCFun Version 0.99 
----- Orbital basis set information -----
Your calculation utilizes the basis: def2-SVP
   F. Weigend and R. Ahlrichs, Phys. Chem. Chem. Phys. 7, 3297 (2005).

================================================================================
                                        WARNINGS
                       Please study these warnings very carefully!
================================================================================


INFO   : the flag for use of LIBINT has been found!

================================================================================
                                       INPUT FILE
================================================================================
NAME = config_6056.inp
|  1> ! wB97X-D3 SP def2-SVP
|  2> %pal
|  3> nprocs 16
|  4> end
|  5> 
|  6> * xyz 0 1
|  7> S 	 -32.5959 	 1.02132 	 98.109 	 
|  8> C 	 -32.0157 	 1.73606 	 96.6046 	 
|  9> C 	 -33.008 	 2.26239 	 95.867 	 
| 10> C 	 -34.2598 	 2.2344 	 96.5271 	 
| 11> C 	 -34.2503 	 1.61621 	 97.7373 	 
| 12> H 	 -35.2347 	 2.56753 	 96.1691 	 
| 13> C 	 -32.8776 	 2.78439 	 94.3478 	 
| 14> H 	 -32.039 	 3.51889 	 94.3153 	 
| 15> H 	 -33.7977 	 3.30876 	 94.0033 	 
| 16> C 	 -32.5705 	 1.70841 	 93.2511 	 
| 17> H 	 -32.0817 	 0.903985 	 93.7828 	 
| 18> H 	 -33.4782 	 1.20751 	 92.9524 	 
| 19> C 	 -31.7992 	 2.1471 	 91.9848 	 
| 20> H 	 -31.2647 	 3.01998 	 92.2264 	 
| 21> H 	 -31.0753 	 1.44006 	 91.6259 	 
| 22> H 	 -32.4034 	 2.43189 	 91.1062 	 
| 23> S 	 -35.3408 	 2.02182 	 100.325 	 
| 24> C 	 -37.01 	 1.47781 	 100.559 	 
| 25> C 	 -37.6446 	 1.10999 	 99.3836 	 
| 26> C 	 -36.7293 	 1.12942 	 98.2571 	 
| 27> C 	 -35.3974 	 1.41506 	 98.6172 	 
| 28> H 	 -38.6268 	 0.769298 	 99.459 	 
| 29> C 	 -37.3211 	 0.725668 	 96.8871 	 
| 30> H 	 -36.6206 	 0.818289 	 96.0812 	 
| 31> H 	 -38.0783 	 1.52893 	 96.7364 	 
| 32> C 	 -37.9846 	 -0.674547 	 96.7773 	 
| 33> H 	 -38.558 	 -0.680786 	 95.853 	 
| 34> H 	 -38.5942 	 -0.900721 	 97.5979 	 
| 35> C 	 -36.9282 	 -1.81197 	 96.5723 	 
| 36> H 	 -37.3951 	 -2.75238 	 96.4438 	 
| 37> H 	 -36.2288 	 -2.0571 	 97.3797 	 
| 38> H 	 -36.242 	 -1.63754 	 95.7019 	 
| 39> H 	 -30.9924 	 1.75189 	 96.2256 	 
| 40> H 	 -37.3847 	 1.42394 	 101.57 	 
| 41> *
| 42> 
| 43>                          ****END OF INPUT****
================================================================================

                       ****************************
                       * Single Point Calculation *
                       ****************************

---------------------------------
CARTESIAN COORDINATES (ANGSTROEM)
---------------------------------
  S    -32.595900    1.021320   98.109000
  C    -32.015700    1.736060   96.604600
  C    -33.008000    2.262390   95.867000
  C    -34.259800    2.234400   96.527100
  C    -34.250300    1.616210   97.737300
  H    -35.234700    2.567530   96.169100
  C    -32.877600    2.784390   94.347800
  H    -32.039000    3.518890   94.315300
  H    -33.797700    3.308760   94.003300
  C    -32.570500    1.708410   93.251100
  H    -32.081700    0.903985   93.782800
  H    -33.478200    1.207510   92.952400
  C    -31.799200    2.147100   91.984800
  H    -31.264700    3.019980   92.226400
  H    -31.075300    1.440060   91.625900
  H    -32.403400    2.431890   91.106200
  S    -35.340800    2.021820  100.325000
  C    -37.010000    1.477810  100.559000
  C    -37.644600    1.109990   99.383600
  C    -36.729300    1.129420   98.257100
  C    -35.397400    1.415060   98.617200
  H    -38.626800    0.769298   99.459000
  C    -37.321100    0.725668   96.887100
  H    -36.620600    0.818289   96.081200
  H    -38.078300    1.528930   96.736400
  C    -37.984600   -0.674547   96.777300
  H    -38.558000   -0.680786   95.853000
  H    -38.594200   -0.900721   97.597900
  C    -36.928200   -1.811970   96.572300
  H    -37.395100   -2.752380   96.443800
  H    -36.228800   -2.057100   97.379700
  H    -36.242000   -1.637540   95.701900
  H    -30.992400    1.751890   96.225600
  H    -37.384700    1.423940  101.570000

----------------------------
CARTESIAN COORDINATES (A.U.)
----------------------------
  NO LB      ZA    FRAG     MASS         X           Y           Z
   0 S    16.0000    0    32.060  -61.597324    1.930015  185.399141
   1 C     6.0000    0    12.011  -60.500905    3.280678  182.556237
   2 C     6.0000    0    12.011  -62.376080    4.275298  181.162375
   3 C     6.0000    0    12.011  -64.741639    4.222404  182.409784
   4 C     6.0000    0    12.011  -64.723687    3.054194  184.696730
   5 H     1.0000    0     1.008  -66.583933    4.851929  181.733262
   6 C     6.0000    0    12.011  -62.129660    5.261735  178.291503
   7 H     1.0000    0     1.008  -60.544936    6.649738  178.230087
   8 H     1.0000    0     1.008  -63.868397    6.252650  177.640493
   9 C     6.0000    0    12.011  -61.549325    3.228427  176.219041
  10 H     1.0000    0     1.008  -60.625627    1.708284  177.223808
  11 H     1.0000    0     1.008  -63.264629    2.281863  175.654579
  12 C     6.0000    0    12.011  -60.091779    4.057431  173.826080
  13 H     1.0000    0     1.008  -59.081721    5.706935  174.282638
  14 H     1.0000    0     1.008  -58.723807    2.721319  173.147858
  15 H     1.0000    0     1.008  -61.233552    4.595606  172.165767
  16 S    16.0000    0    32.060  -66.784433    3.820686  189.586774
  17 C     6.0000    0    12.011  -69.938764    2.792656  190.028970
  18 C     6.0000    0    12.011  -71.137984    2.097577  187.807786
  19 C     6.0000    0    12.011  -69.408318    2.134294  185.679010
  20 C     6.0000    0    12.011  -66.891392    2.674076  186.359500
  21 H     1.0000    0     1.008  -72.994073    1.453763  187.950272
  22 C     6.0000    0    12.011  -70.526658    1.371314  183.090085
  23 H     1.0000    0     1.008  -69.202905    1.546342  181.567155
  24 H     1.0000    0     1.008  -71.957559    2.889259  182.805303
  25 C     6.0000    0    12.011  -71.780491   -1.274709  182.882593
  26 H     1.0000    0     1.008  -72.864060   -1.286499  181.135919
  27 H     1.0000    0     1.008  -72.932468   -1.702116  184.433302
  28 C     6.0000    0    12.011  -69.784185   -3.424127  182.495199
  29 H     1.0000    0     1.008  -70.666498   -5.201244  182.252369
  30 H     1.0000    0     1.008  -68.462510   -3.887356  184.020964
  31 H     1.0000    0     1.008  -68.487455   -3.094502  180.850381
  32 H     1.0000    0     1.008  -58.567148    3.310592  181.840031
  33 H     1.0000    0     1.008  -70.646845    2.690857  191.939483

--------------------------------
INTERNAL COORDINATES (ANGSTROEM)
--------------------------------
 S      0   0   0     0.000000000000     0.00000000     0.00000000
 C      1   0   0     1.763718987707     0.00000000     0.00000000
 C      2   1   0     1.343776885833   112.58180077     0.00000000
 C      3   2   1     1.415457060493   112.91317539     5.72756004
 C      4   3   2     1.358982400953   114.71517399   356.24487373
 H      4   3   2     1.090673923269   129.15267704   181.49284580
 C      3   2   1     1.611662743877   125.76929758   190.14919703
 H      7   3   2     1.115256230648   107.55491503   306.26642976
 H      7   3   2     1.113655313326   112.16352517   188.16473476
 C      7   3   2     1.566778306079   116.95191108    65.97678539
 H     10   7   3     1.081078124201   104.79523427   335.42582620
 H     10   7   3     1.078907683725   110.34788475    82.08609290
 C     10   7   3     1.546243284901   118.43600248   208.56985064
 H     13  10   7     1.051655981964   107.50971616    22.55608279
 H     13  10   7     1.073660086620   115.03970182   140.73672036
 H     13  10   7     1.103676104706   116.87677358   265.79981423
 S      5   4   3     2.837234747443   138.11446384   138.06243923
 C     17   5   4     1.771138481345   116.02859744    82.73122020
 C     18  17   5     1.385486871970   113.64883767   350.43984647
 C     19  18  17     1.451603893939   111.46916121     6.05515501
 C     20  19  18     1.408978292807   113.60489706     4.45219044
 H     19  18  17     1.042340174254   117.19442189   179.26593766
 C     20  19  18     1.546008705507   116.28429861   179.55962789
 H     23  20  19     1.071799286080   113.17611717   176.26370804
 H     23  20  19     1.114132923239   101.05390525    63.04945026
 C     23  20  19     1.553348105295   117.48763779   302.80533284
 H     26  23  20     1.087730194084   106.88219829   165.61317678
 H     26  23  20     1.046972396139   112.83204729    43.36898310
 C     26  23  20     1.565802363304   112.07859642   278.81815942
 H     29  26  23     1.057770687862   111.34140097   183.24681775
 H     29  26  23     1.095967078383   119.77324867    67.35483828
 H     29  26  23     1.122003754405   113.65643391   305.87038085
 H      2   1   3     1.091345261088   127.62920177   182.52563191
 H     18  17   5     1.079547621414   117.78592844   167.40822500

---------------------------
INTERNAL COORDINATES (A.U.)
---------------------------
 S      0   0   0     0.000000000000     0.00000000     0.00000000
 C      1   0   0     3.332945863964     0.00000000     0.00000000
 C      2   1   0     2.539370299319   112.58180077     0.00000000
 C      3   2   1     2.674826198657   112.91317539     5.72756004
 C      4   3   2     2.568104558620   114.71517399   356.24487373
 H      4   3   2     2.061075016389   129.15267704   181.49284580
 C      3   2   1     3.045601206171   125.76929758   190.14919703
 H      7   3   2     2.107528845075   107.55491503   306.26642976
 H      7   3   2     2.104503549773   112.16352517   188.16473476
 C      7   3   2     2.960781911059   116.95191108    65.97678539
 H     10   7   3     2.042941584112   104.79523427   335.42582620
 H     10   7   3     2.038840046023   110.34788475    82.08609290
 C     10   7   3     2.921976344877   118.43600248   208.56985064
 H     13  10   7     1.987341793011   107.50971616    22.55608279
 H     13  10   7     2.028923524633   115.03970182   140.73672036
 H     13  10   7     2.085645578448   116.87677358   265.79981423
 S      5   4   3     5.361596650313   138.11446384   138.06243923
 C     17   5   4     3.346966674991   116.02859744    82.73122020
 C     18  17   5     2.618190750166   113.64883767   350.43984647
 C     19  18  17     2.743133814479   111.46916121     6.05515501
 C     20  19  18     2.662583102044   113.60489706     4.45219044
 H     19  18  17     1.969737467724   117.19442189   179.26593766
 C     20  19  18     2.921533054067   116.28429861   179.55962789
 H     23  20  19     2.025407121223   113.17611717   176.26370804
 H     23  20  19     2.105406101706   101.05390525    63.04945026
 C     23  20  19     2.935402509654   117.48763779   302.80533284
 H     26  23  20     2.055512174415   106.88219829   165.61317678
 H     26  23  20     1.978491098477   112.83204729    43.36898310
 C     26  23  20     2.958937646492   112.07859642   278.81815942
 H     29  26  23     1.998896912549   111.34140097   183.24681775
 H     29  26  23     2.071077629938   119.77324867    67.35483828
 H     29  26  23     2.120279817058   113.65643391   305.87038085
 H      2   1   3     2.062343661010   127.62920177   182.52563191
 H     18  17   5     2.040049352998   117.78592844   167.40822500

---------------------
BASIS SET INFORMATION
---------------------
There are 3 groups of distinct atoms

 Group   1 Type S   : 10s7p1d contracted to 4s3p1d pattern {5311/511/1}
 Group   2 Type C   : 7s4p1d contracted to 3s2p1d pattern {511/31/1}
 Group   3 Type H   : 4s1p contracted to 2s1p pattern {31/1}

Atom   0S    basis set group =>   1
Atom   1C    basis set group =>   2
Atom   2C    basis set group =>   2
Atom   3C    basis set group =>   2
Atom   4C    basis set group =>   2
Atom   5H    basis set group =>   3
Atom   6C    basis set group =>   2
Atom   7H    basis set group =>   3
Atom   8H    basis set group =>   3
Atom   9C    basis set group =>   2
Atom  10H    basis set group =>   3
Atom  11H    basis set group =>   3
Atom  12C    basis set group =>   2
Atom  13H    basis set group =>   3
Atom  14H    basis set group =>   3
Atom  15H    basis set group =>   3
Atom  16S    basis set group =>   1
Atom  17C    basis set group =>   2
Atom  18C    basis set group =>   2
Atom  19C    basis set group =>   2
Atom  20C    basis set group =>   2
Atom  21H    basis set group =>   3
Atom  22C    basis set group =>   2
Atom  23H    basis set group =>   3
Atom  24H    basis set group =>   3
Atom  25C    basis set group =>   2
Atom  26H    basis set group =>   3
Atom  27H    basis set group =>   3
Atom  28C    basis set group =>   2
Atom  29H    basis set group =>   3
Atom  30H    basis set group =>   3
Atom  31H    basis set group =>   3
Atom  32H    basis set group =>   3
Atom  33H    basis set group =>   3


           ************************************************************
           *        Program running with 16 parallel MPI-processes    *
           *              working on a common directory               *
           ************************************************************
------------------------------------------------------------------------------
                           ORCA GTO INTEGRAL CALCULATION
------------------------------------------------------------------------------

                         BASIS SET STATISTICS AND STARTUP INFO

 # of primitive gaussian shells          ...  294
 # of primitive gaussian functions       ...  534
 # of contracted shells                  ...  154
 # of contracted basis functions         ...  322
 Highest angular momentum                ...    2
 Maximum contraction depth               ...    5
 Integral package used                   ... LIBINT
 Integral threshhold            Thresh   ...  1.000e-10
 Primitive cut-off              TCut     ...  1.000e-11


------------------------------ INTEGRAL EVALUATION ----------------------------


 * One electron integrals 
 Pre-screening matrix                    ... done
 Shell pair data                         ... done (   0.003 sec)



           ************************************************************
           *        Program running with 16 parallel MPI-processes    *
           *              working on a common directory               *
           ************************************************************
-------------------------------------------------------------------------------
                                 ORCA SCF
-------------------------------------------------------------------------------

------------
SCF SETTINGS
------------
Hamiltonian:
 Density Functional     Method          .... DFT(GTOs)
 Exchange Functional    Exchange        .... WB97X-D3
 Correlation Functional Correlation     .... WB97X-D3
 Gradients option       PostSCFGGA      .... off
 Hybrid DFT is turned on
   Fraction HF Exchange ScalHFX         ....  0.195728
   Scaling of DF-GGA-X  ScalDFX         ....  0.000000
   Scaling of DF-GGA-C  ScalDFC         ....  1.000000
   Scaling of DF-LDA-C  ScalLDAC        ....  1.000000
   Perturbative correction              ....  0.000000
   Density functional embedding theory  .... OFF
 Long-range corrected/Screened/Range-Separated Hybrid DFT is turned on
   Amount of maximum screened exact exchange              ....  0.804272
   Range separation parameter mu (erf(mu*r12)/r12)        ....  0.250000


General Settings:
 Integral files         IntName         .... config_6056
 Hartree-Fock type      HFTyp           .... RHF
 Total Charge           Charge          ....    0
 Multiplicity           Mult            ....    1
 Number of Electrons    NEL             ....  134
 Basis Dimension        Dim             ....  322
 Nuclear Repulsion      ENuc            ....   1262.5233930157 Eh

Convergence Acceleration:
 DIIS                   CNVDIIS         .... on
   Start iteration      DIISMaxIt       ....    12
   Startup error        DIISStart       ....  0.200000
   # of expansion vecs  DIISMaxEq       ....     5
   Bias factor          DIISBfac        ....   1.050
   Max. coefficient     DIISMaxC        ....  10.000
 Newton-Raphson         CNVNR           .... off
 SOSCF                  CNVSOSCF        .... on
   Start iteration      SOSCFMaxIt      ....   150
   Startup grad/error   SOSCFStart      ....  0.003300
 Level Shifting         CNVShift        .... on
   Level shift para.    LevelShift      ....    0.2500
   Turn off err/grad.   ShiftErr        ....    0.0010
 Zerner damping         CNVZerner       .... off
 Static damping         CNVDamp         .... on
   Fraction old density DampFac         ....    0.7000
   Max. Damping (<1)    DampMax         ....    0.9800
   Min. Damping (>=0)   DampMin         ....    0.0000
   Turn off err/grad.   DampErr         ....    0.1000
 Fernandez-Rico         CNVRico         .... off

SCF Procedure:
 Maximum # iterations   MaxIter         ....   125
 SCF integral mode      SCFMode         .... Direct
   Integral package                     .... LIBINT
 Reset frequency        DirectResetFreq ....    20
 Integral Threshold     Thresh          ....  1.000e-10 Eh
 Primitive CutOff       TCut            ....  1.000e-11 Eh

Convergence Tolerance:
 Convergence Check Mode ConvCheckMode   .... Total+1el-Energy
 Convergence forced     ConvForced      .... 0
 Energy Change          TolE            ....  1.000e-06 Eh
 1-El. energy change                    ....  1.000e-03 Eh
 Orbital Gradient       TolG            ....  5.000e-05
 Orbital Rotation angle TolX            ....  5.000e-05
 DIIS Error             TolErr          ....  1.000e-06


Diagonalization of the overlap matrix:
Smallest eigenvalue                        ... 5.914e-04
Time for diagonalization                   ...    0.016 sec
Threshold for overlap eigenvalues          ... 1.000e-08
Number of eigenvalues below threshold      ... 0
Time for construction of square roots      ...    0.028 sec
Total time needed                          ...    0.045 sec

-------------------
DFT GRID GENERATION
-------------------

General Integration Accuracy     IntAcc      ...  4.340
Radial Grid Type                 RadialGrid  ... Gauss-Chebyshev
Angular Grid (max. acc.)         AngularGrid ... Lebedev-110
Angular grid pruning method      GridPruning ... 3 (G Style)
Weight generation scheme         WeightScheme... Becke
Basis function cutoff            BFCut       ...    1.0000e-10
Integration weight cutoff        WCut        ...    1.0000e-14
Grids for H and He will be reduced by one unit

# of grid points (after initial pruning)     ...  41088 (   0.0 sec)
# of grid points (after weights+screening)   ...  37059 (   0.0 sec)
nearest neighbour list constructed           ...    0.0 sec
Grid point re-assignment to atoms done       ...    0.0 sec
Grid point division into batches done        ...    0.0 sec
Reduced shell lists constructed in    0.1 sec

Total number of grid points                  ...    37059
Total number of batches                      ...      597
Average number of points per batch           ...       62
Average number of grid points per atom       ...     1090
Average number of shells per batch           ...    76.00 (49.35%)
Average number of basis functions per batch  ...   149.28 (46.36%)
Average number of large shells per batch     ...    47.28 (62.21%)
Average number of large basis fcns per batch ...    97.49 (65.30%)
Maximum spatial batch extension              ...  13.89, 24.36, 13.49 au
Average spatial batch extension              ...   0.20,  0.25,  0.21 au

Time for grid setup =    0.205 sec

------------------------------
INITIAL GUESS: MODEL POTENTIAL
------------------------------
Loading Hartree-Fock densities                     ... done
Calculating cut-offs                               ... done
Setting up the integral package                    ... done
Initializing the effective Hamiltonian             ... done
Starting the Coulomb interaction                   ... done (   0.0 sec)
Reading the grid                                   ... done
Mapping shells                                     ... done
Starting the XC term evaluation                    ... done (   0.0 sec)
  promolecular density results
     # of electrons  =    133.998130628
     EX              =   -126.656701466
     EC              =     -4.603975806
     EX+EC           =   -131.260677272
Transforming the Hamiltonian                       ... done (   0.0 sec)
Diagonalizing the Hamiltonian                      ... done (   0.0 sec)
Back transforming the eigenvectors                 ... done (   0.0 sec)
Now organizing SCF variables                       ... done
                      ------------------
                      INITIAL GUESS DONE (   0.4 sec)
                      ------------------
--------------
SCF ITERATIONS
--------------
ITER       Energy         Delta-E        Max-DP      RMS-DP      [F,P]     Damp
               ***  Starting incremental Fock matrix formation  ***
  0  -1339.4255056706   0.000000000000 0.06430143  0.00152365  0.1585745 0.7000
  1  -1339.6071426637  -0.181636993048 0.04335511  0.00111386  0.0956618 0.7000
                               ***Turning on DIIS***
  2  -1339.6953926847  -0.088250020982 0.08478051  0.00210230  0.0494874 0.0000
  3  -1339.8289988352  -0.133606150552 0.04338871  0.00095403  0.0414207 0.0000
  4  -1339.8576780983  -0.028679263044 0.00747635  0.00019207  0.0074436 0.0000
                      *** Initiating the SOSCF procedure ***
                           *** Shutting down DIIS ***
                      *** Re-Reading the Fockian *** 
                      *** Removing any level shift *** 
ITER      Energy       Delta-E        Grad      Rot      Max-DP    RMS-DP
  5  -1339.85855291  -0.0008748145  0.001486  0.001486  0.003064  0.000097
               *** Restarting incremental Fock matrix formation ***
  6  -1339.85875396  -0.0002010438  0.001427  0.004031  0.002266  0.000065
  7  -1339.85882879  -0.0000748306  0.000733  0.004917  0.003203  0.000068
  8  -1339.85884830  -0.0000195119  0.000374  0.000834  0.000993  0.000022
  9  -1339.85885452  -0.0000062161  0.000176  0.000466  0.000308  0.000009
 10  -1339.85885502  -0.0000005020  0.000078  0.000249  0.000162  0.000004
                 **** Energy Check signals convergence ****
              ***Rediagonalizing the Fockian in SOSCF/NRSCF***

               *****************************************************
               *                     SUCCESS                       *
               *           SCF CONVERGED AFTER  11 CYCLES          *
               *****************************************************

Setting up the final grid:

General Integration Accuracy     IntAcc      ...  4.670
Radial Grid Type                 RadialGrid  ... Gauss-Chebyshev
Angular Grid (max. acc.)         AngularGrid ... Lebedev-302
Angular grid pruning method      GridPruning ... 3 (G Style)
Weight generation scheme         WeightScheme... Becke
Basis function cutoff            BFCut       ...    1.0000e-10
Integration weight cutoff        WCut        ...    1.0000e-14
Grids for H and He will be reduced by one unit

# of grid points (after initial pruning)     ... 161752 (   0.0 sec)
# of grid points (after weights+screening)   ... 143010 (   0.2 sec)
nearest neighbour list constructed           ...    0.0 sec
Grid point re-assignment to atoms done       ...    0.0 sec
Grid point division into batches done        ...    0.5 sec
Reduced shell lists constructed in    0.6 sec

Total number of grid points                  ...   143010
Total number of batches                      ...     2253
Average number of points per batch           ...       63
Average number of grid points per atom       ...     4206
Average number of shells per batch           ...    70.00 (45.45%)
Average number of basis functions per batch  ...   137.37 (42.66%)
Average number of large shells per batch     ...    42.31 (60.44%)
Average number of large basis fcns per batch ...    86.59 (63.04%)
Maximum spatial batch extension              ...  13.19, 16.27, 13.15 au
Average spatial batch extension              ...   0.13,  0.14,  0.13 au

Final grid set up in    0.9 sec
Final integration                            ... done (   0.3 sec)
Change in XC energy                          ...     0.006707712
Integrated number of electrons               ...   134.000025149
Previous integrated no of electrons          ...   134.002084753

----------------
TOTAL SCF ENERGY
----------------

Total Energy       :        -1339.85214763 Eh          -36459.23049 eV

Components:
Nuclear Repulsion  :         1262.52339302 Eh           34355.00810 eV
Electronic Energy  :        -2602.37554065 Eh          -70814.23859 eV
One Electron Energy:        -4341.76051618 Eh         -118145.31004 eV
Two Electron Energy:         1739.38497553 Eh           47331.07145 eV

Virial components:
Potential Energy   :        -2671.06925027 Eh          -72683.48946 eV
Kinetic Energy     :         1331.21710263 Eh           36224.25897 eV
Virial Ratio       :            2.00648658


DFT components:
N(Alpha)           :       67.000012574466 electrons
N(Beta)            :       67.000012574466 electrons
N(Total)           :      134.000025148933 electrons
E(XC)              :      -94.191224996776 Eh       
DFET-embed. en.    :        0.000000000000 Eh       

---------------
SCF CONVERGENCE
---------------

  Last Energy change         ...   -3.2957e-07  Tolerance :   1.0000e-06
  Last MAX-Density change    ...    3.3296e-05  Tolerance :   1.0000e-05
  Last RMS-Density change    ...    7.6207e-07  Tolerance :   1.0000e-06
  Last Orbital Gradient      ...    1.0259e-05  Tolerance :   5.0000e-05
  Last Orbital Rotation      ...    3.0365e-05  Tolerance :   5.0000e-05

             **** THE GBW FILE WAS UPDATED (config_6056.gbw) ****
             **** DENSITY FILE WAS UPDATED (config_6056.scfp) ****
             **** ENERGY FILE WAS UPDATED (config_6056.en.tmp) ****
             **** THE GBW FILE WAS UPDATED (config_6056.gbw) ****
             **** DENSITY FILE WAS UPDATED (config_6056.scfp) ****
----------------
ORBITAL ENERGIES
----------------

  NO   OCC          E(Eh)            E(eV) 
   0   2.0000     -88.966883     -2420.9120 
   1   2.0000     -88.963606     -2420.8228 
   2   2.0000     -10.333222      -281.1813 
   3   2.0000     -10.329068      -281.0682 
   4   2.0000     -10.321705      -280.8679 
   5   2.0000     -10.314430      -280.6699 
   6   2.0000     -10.314270      -280.6656 
   7   2.0000     -10.306108      -280.4434 
   8   2.0000     -10.302883      -280.3557 
   9   2.0000     -10.298000      -280.2228 
  10   2.0000     -10.295432      -280.1530 
  11   2.0000     -10.291712      -280.0517 
  12   2.0000     -10.290589      -280.0212 
  13   2.0000     -10.285669      -279.8873 
  14   2.0000     -10.276643      -279.6417 
  15   2.0000     -10.275535      -279.6115 
  16   2.0000      -8.080708      -219.8873 
  17   2.0000      -8.077415      -219.7976 
  18   2.0000      -6.039363      -164.3394 
  19   2.0000      -6.035994      -164.2477 
  20   2.0000      -6.035487      -164.2340 
  21   2.0000      -6.032253      -164.1460 
  22   2.0000      -6.031216      -164.1177 
  23   2.0000      -6.027960      -164.0291 
  24   2.0000      -1.000804       -27.2333 
  25   2.0000      -0.977254       -26.5924 
  26   2.0000      -0.903280       -24.5795 
  27   2.0000      -0.898903       -24.4604 
  28   2.0000      -0.869628       -23.6638 
  29   2.0000      -0.847847       -23.0711 
  30   2.0000      -0.841380       -22.8951 
  31   2.0000      -0.812400       -22.1065 
  32   2.0000      -0.783719       -21.3261 
  33   2.0000      -0.774042       -21.0627 
  34   2.0000      -0.711287       -19.3551 
  35   2.0000      -0.702779       -19.1236 
  36   2.0000      -0.695675       -18.9303 
  37   2.0000      -0.659794       -17.9539 
  38   2.0000      -0.639993       -17.4151 
  39   2.0000      -0.617563       -16.8047 
  40   2.0000      -0.599604       -16.3160 
  41   2.0000      -0.568993       -15.4831 
  42   2.0000      -0.553864       -15.0714 
  43   2.0000      -0.546358       -14.8671 
  44   2.0000      -0.537627       -14.6296 
  45   2.0000      -0.522924       -14.2295 
  46   2.0000      -0.516692       -14.0599 
  47   2.0000      -0.507876       -13.8200 
  48   2.0000      -0.499870       -13.6022 
  49   2.0000      -0.496941       -13.5225 
  50   2.0000      -0.488150       -13.2832 
  51   2.0000      -0.481679       -13.1072 
  52   2.0000      -0.469995       -12.7892 
  53   2.0000      -0.461781       -12.5657 
  54   2.0000      -0.457964       -12.4618 
  55   2.0000      -0.447700       -12.1825 
  56   2.0000      -0.442313       -12.0359 
  57   2.0000      -0.436041       -11.8653 
  58   2.0000      -0.432713       -11.7747 
  59   2.0000      -0.431061       -11.7298 
  60   2.0000      -0.424365       -11.5476 
  61   2.0000      -0.414932       -11.2909 
  62   2.0000      -0.411568       -11.1993 
  63   2.0000      -0.347916        -9.4673 
  64   2.0000      -0.333708        -9.0807 
  65   2.0000      -0.328991        -8.9523 
  66   2.0000      -0.294254        -8.0071 
  67   0.0000       0.025106         0.6832 
  68   0.0000       0.071273         1.9394 
  69   0.0000       0.101184         2.7534 
  70   0.0000       0.112281         3.0553 
  71   0.0000       0.133611         3.6357 
  72   0.0000       0.136556         3.7159 
  73   0.0000       0.148135         4.0309 
  74   0.0000       0.154773         4.2116 
  75   0.0000       0.165230         4.4961 
  76   0.0000       0.173913         4.7324 
  77   0.0000       0.177958         4.8425 
  78   0.0000       0.186634         5.0786 
  79   0.0000       0.191731         5.2173 
  80   0.0000       0.196795         5.3551 
  81   0.0000       0.202104         5.4995 
  82   0.0000       0.206548         5.6205 
  83   0.0000       0.212451         5.7811 
  84   0.0000       0.218198         5.9375 
  85   0.0000       0.224395         6.1061 
  86   0.0000       0.230727         6.2784 
  87   0.0000       0.242023         6.5858 
  88   0.0000       0.242847         6.6082 
  89   0.0000       0.252250         6.8641 
  90   0.0000       0.260358         7.0847 
  91   0.0000       0.263051         7.1580 
  92   0.0000       0.271793         7.3959 
  93   0.0000       0.297019         8.0823 
  94   0.0000       0.306763         8.3475 
  95   0.0000       0.314184         8.5494 
  96   0.0000       0.322029         8.7629 
  97   0.0000       0.336627         9.1601 
  98   0.0000       0.348106         9.4725 
  99   0.0000       0.362503         9.8642 
 100   0.0000       0.380276        10.3478 
 101   0.0000       0.388403        10.5690 
 102   0.0000       0.412102        11.2139 
 103   0.0000       0.420709        11.4481 
 104   0.0000       0.439827        11.9683 
 105   0.0000       0.448766        12.2115 
 106   0.0000       0.466246        12.6872 
 107   0.0000       0.473399        12.8819 
 108   0.0000       0.484299        13.1784 
 109   0.0000       0.487054        13.2534 
 110   0.0000       0.492034        13.3889 
 111   0.0000       0.507999        13.8234 
 112   0.0000       0.514306        13.9950 
 113   0.0000       0.525271        14.2933 
 114   0.0000       0.527765        14.3612 
 115   0.0000       0.543986        14.8026 
 116   0.0000       0.545561        14.8455 
 117   0.0000       0.554090        15.0776 
 118   0.0000       0.563021        15.3206 
 119   0.0000       0.565866        15.3980 
 120   0.0000       0.583227        15.8704 
 121   0.0000       0.590254        16.0616 
 122   0.0000       0.597618        16.2620 
 123   0.0000       0.611695        16.6451 
 124   0.0000       0.613583        16.6964 
 125   0.0000       0.631987        17.1972 
 126   0.0000       0.635016        17.2797 
 127   0.0000       0.645265        17.5586 
 128   0.0000       0.652075        17.7439 
 129   0.0000       0.660186        17.9646 
 130   0.0000       0.673235        18.3197 
 131   0.0000       0.684653        18.6304 
 132   0.0000       0.688237        18.7279 
 133   0.0000       0.692337        18.8395 
 134   0.0000       0.706634        19.2285 
 135   0.0000       0.708330        19.2747 
 136   0.0000       0.719484        19.5782 
 137   0.0000       0.719782        19.5863 
 138   0.0000       0.728098        19.8126 
 139   0.0000       0.734609        19.9897 
 140   0.0000       0.739762        20.1299 
 141   0.0000       0.742539        20.2055 
 142   0.0000       0.748367        20.3641 
 143   0.0000       0.753190        20.4953 
 144   0.0000       0.757637        20.6164 
 145   0.0000       0.765228        20.8229 
 146   0.0000       0.769021        20.9261 
 147   0.0000       0.774574        21.0772 
 148   0.0000       0.776937        21.1415 
 149   0.0000       0.778837        21.1932 
 150   0.0000       0.783737        21.3266 
 151   0.0000       0.788039        21.4436 
 152   0.0000       0.788696        21.4615 
 153   0.0000       0.795636        21.6504 
 154   0.0000       0.804570        21.8935 
 155   0.0000       0.805606        21.9217 
 156   0.0000       0.808196        21.9921 
 157   0.0000       0.810672        22.0595 
 158   0.0000       0.818429        22.2706 
 159   0.0000       0.826464        22.4892 
 160   0.0000       0.831593        22.6288 
 161   0.0000       0.839998        22.8575 
 162   0.0000       0.843892        22.9635 
 163   0.0000       0.845390        23.0042 
 164   0.0000       0.855833        23.2884 
 165   0.0000       0.857876        23.3440 
 166   0.0000       0.860963        23.4280 
 167   0.0000       0.873333        23.7646 
 168   0.0000       0.879390        23.9294 
 169   0.0000       0.891102        24.2481 
 170   0.0000       0.903155        24.5761 
 171   0.0000       0.913260        24.8511 
 172   0.0000       0.919173        25.0120 
 173   0.0000       0.927809        25.2470 
 174   0.0000       0.955701        26.0060 
 175   0.0000       0.972020        26.4500 
 176   0.0000       0.976838        26.5811 
 177   0.0000       0.989786        26.9334 
 178   0.0000       0.995442        27.0874 
 179   0.0000       1.031656        28.0728 
 180   0.0000       1.043460        28.3940 
 181   0.0000       1.055113        28.7111 
 182   0.0000       1.067176        29.0393 
 183   0.0000       1.085444        29.5364 
 184   0.0000       1.105147        30.0726 
 185   0.0000       1.139405        31.0048 
 186   0.0000       1.155897        31.4536 
 187   0.0000       1.168998        31.8101 
 188   0.0000       1.175798        31.9951 
 189   0.0000       1.193177        32.4680 
 190   0.0000       1.212367        32.9902 
 191   0.0000       1.232981        33.5511 
 192   0.0000       1.244815        33.8731 
 193   0.0000       1.267968        34.5032 
 194   0.0000       1.270018        34.5589 
 195   0.0000       1.307820        35.5876 
 196   0.0000       1.313879        35.7525 
 197   0.0000       1.319486        35.9050 
 198   0.0000       1.326835        36.1050 
 199   0.0000       1.350910        36.7601 
 200   0.0000       1.364436        37.1282 
 201   0.0000       1.396245        37.9938 
 202   0.0000       1.404160        38.2091 
 203   0.0000       1.432928        38.9920 
 204   0.0000       1.437940        39.1283 
 205   0.0000       1.446531        39.3621 
 206   0.0000       1.458195        39.6795 
 207   0.0000       1.491319        40.5809 
 208   0.0000       1.506629        40.9975 
 209   0.0000       1.542279        41.9675 
 210   0.0000       1.558992        42.4223 
 211   0.0000       1.580029        42.9948 
 212   0.0000       1.603601        43.6362 
 213   0.0000       1.653632        44.9976 
 214   0.0000       1.656625        45.0791 
 215   0.0000       1.673038        45.5257 
 216   0.0000       1.675890        45.6033 
 217   0.0000       1.679165        45.6924 
 218   0.0000       1.714523        46.6545 
 219   0.0000       1.762607        47.9630 
 220   0.0000       1.768555        48.1248 
 221   0.0000       1.778648        48.3995 
 222   0.0000       1.791730        48.7555 
 223   0.0000       1.810575        49.2683 
 224   0.0000       1.823575        49.6220 
 225   0.0000       1.825254        49.6677 
 226   0.0000       1.829534        49.7841 
 227   0.0000       1.837435        49.9991 
 228   0.0000       1.855187        50.4822 
 229   0.0000       1.856769        50.5253 
 230   0.0000       1.859640        50.6034 
 231   0.0000       1.874629        51.0112 
 232   0.0000       1.877162        51.0802 
 233   0.0000       1.884181        51.2712 
 234   0.0000       1.888774        51.3961 
 235   0.0000       1.894058        51.5400 
 236   0.0000       1.917264        52.1714 
 237   0.0000       1.918268        52.1987 
 238   0.0000       1.931386        52.5557 
 239   0.0000       1.942732        52.8644 
 240   0.0000       1.946216        52.9592 
 241   0.0000       1.955315        53.2068 
 242   0.0000       1.964312        53.4516 
 243   0.0000       1.975962        53.7687 
 244   0.0000       1.985579        54.0303 
 245   0.0000       1.988946        54.1220 
 246   0.0000       2.011695        54.7410 
 247   0.0000       2.013831        54.7991 
 248   0.0000       2.021403        55.0052 
 249   0.0000       2.038258        55.4638 
 250   0.0000       2.046604        55.6909 
 251   0.0000       2.058542        56.0158 
 252   0.0000       2.063113        56.1402 
 253   0.0000       2.068839        56.2960 
 254   0.0000       2.087791        56.8117 
 255   0.0000       2.107293        57.3424 
 256   0.0000       2.111891        57.4675 
 257   0.0000       2.124046        57.7982 
 258   0.0000       2.140970        58.2588 
 259   0.0000       2.147271        58.4302 
 260   0.0000       2.168971        59.0207 
 261   0.0000       2.176348        59.2214 
 262   0.0000       2.177791        59.2607 
 263   0.0000       2.203694        59.9656 
 264   0.0000       2.205283        60.0088 
 265   0.0000       2.228807        60.6489 
 266   0.0000       2.260423        61.5092 
 267   0.0000       2.271841        61.8199 
 268   0.0000       2.277555        61.9754 
 269   0.0000       2.301660        62.6314 
 270   0.0000       2.311236        62.8919 
 271   0.0000       2.348144        63.8963 
 272   0.0000       2.360161        64.2232 
 273   0.0000       2.396395        65.2092 
 274   0.0000       2.415592        65.7316 
 275   0.0000       2.417708        65.7892 
 276   0.0000       2.437734        66.3341 
 277   0.0000       2.445967        66.5582 
 278   0.0000       2.452534        66.7368 
 279   0.0000       2.484965        67.6193 
 280   0.0000       2.492794        67.8324 
 281   0.0000       2.509358        68.2831 
 282   0.0000       2.521213        68.6057 
 283   0.0000       2.526092        68.7384 
 284   0.0000       2.541494        69.1576 
 285   0.0000       2.564437        69.7819 
 286   0.0000       2.570495        69.9467 
 287   0.0000       2.585483        70.3546 
 288   0.0000       2.606892        70.9371 
 289   0.0000       2.632929        71.6456 
 290   0.0000       2.643457        71.9321 
 291   0.0000       2.657527        72.3150 
 292   0.0000       2.675837        72.8132 
 293   0.0000       2.688001        73.1442 
 294   0.0000       2.711922        73.7952 
 295   0.0000       2.733159        74.3730 
 296   0.0000       2.740517        74.5733 
 297   0.0000       2.766043        75.2679 
 298   0.0000       2.792853        75.9974 
 299   0.0000       2.817459        76.6669 
 300   0.0000       2.825494        76.8856 
 301   0.0000       2.838249        77.2327 
 302   0.0000       2.845805        77.4383 
 303   0.0000       2.897868        78.8550 
 304   0.0000       2.931918        79.7815 
 305   0.0000       2.982405        81.1554 
 306   0.0000       3.003227        81.7220 
 307   0.0000       3.021903        82.2302 
 308   0.0000       3.042207        82.7827 
 309   0.0000       3.058539        83.2271 
 310   0.0000       3.072073        83.5954 
 311   0.0000       3.080609        83.8276 
 312   0.0000       3.088222        84.0348 
 313   0.0000       3.119846        84.8953 
 314   0.0000       3.132313        85.2346 
 315   0.0000       3.145660        85.5978 
 316   0.0000       3.192228        86.8649 
 317   0.0000       3.196438        86.9795 
 318   0.0000       3.221748        87.6682 
 319   0.0000       3.264212        88.8237 
 320   0.0000       3.383646        92.0737 
 321   0.0000       3.442159        93.6659 

                    ********************************
                    * MULLIKEN POPULATION ANALYSIS *
                    ********************************

-----------------------
MULLIKEN ATOMIC CHARGES
-----------------------
   0 S :    0.106074
   1 C :   -0.119919
   2 C :   -0.068457
   3 C :    0.026467
   4 C :   -0.165174
   5 H :    0.013846
   6 C :    0.034621
   7 H :    0.034727
   8 H :    0.036220
   9 C :   -0.068808
  10 H :    0.020037
  11 H :    0.022353
  12 C :   -0.029559
  13 H :    0.009346
  14 H :    0.034401
  15 H :    0.037021
  16 S :    0.083531
  17 C :   -0.096027
  18 C :   -0.010644
  19 C :   -0.043291
  20 C :   -0.126708
  21 H :    0.006872
  22 C :    0.049642
  23 H :    0.011494
  24 H :    0.042204
  25 C :   -0.024240
  26 H :    0.033471
  27 H :    0.023460
  28 C :   -0.073754
  29 H :    0.020614
  30 H :    0.036159
  31 H :    0.033143
  32 H :    0.048520
  33 H :    0.062356
Sum of atomic charges:   -0.0000000

--------------------------------
MULLIKEN REDUCED ORBITAL CHARGES
--------------------------------
  0 S s       :     5.851230  s :     5.851230
      pz      :     3.332005  p :     9.944318
      px      :     3.035054
      py      :     3.577260
      dz2     :     0.024685  d :     0.098377
      dxz     :     0.019891
      dyz     :     0.016421
      dx2y2   :     0.015324
      dxy     :     0.022056
  1 C s       :     3.176942  s :     3.176942
      pz      :     0.896816  p :     2.907575
      px      :     0.963769
      py      :     1.046990
      dz2     :     0.008776  d :     0.035401
      dxz     :     0.008994
      dyz     :     0.005753
      dx2y2   :     0.006856
      dxy     :     0.005023
  2 C s       :     3.049025  s :     3.049025
      pz      :     0.984388  p :     2.976237
      px      :     0.984305
      py      :     1.007544
      dz2     :     0.009483  d :     0.043194
      dxz     :     0.013109
      dyz     :     0.005920
      dx2y2   :     0.006584
      dxy     :     0.008098
  3 C s       :     3.193918  s :     3.193918
      pz      :     0.922111  p :     2.743622
      px      :     0.849814
      py      :     0.971697
      dz2     :     0.009546  d :     0.035993
      dxz     :     0.008367
      dyz     :     0.006342
      dx2y2   :     0.006504
      dxy     :     0.005235
  4 C s       :     3.082736  s :     3.082736
      pz      :     1.015666  p :     3.037843
      px      :     0.978310
      py      :     1.043866
      dz2     :     0.010130  d :     0.044595
      dxz     :     0.011553
      dyz     :     0.006720
      dx2y2   :     0.007980
      dxy     :     0.008212
  5 H s       :     0.961582  s :     0.961582
      pz      :     0.004961  p :     0.024572
      px      :     0.013562
      py      :     0.006049
  6 C s       :     3.028309  s :     3.028309
      pz      :     0.886726  p :     2.905644
      px      :     1.004008
      py      :     1.014911
      dz2     :     0.009109  d :     0.031426
      dxz     :     0.003640
      dyz     :     0.007520
      dx2y2   :     0.002347
      dxy     :     0.008810
  7 H s       :     0.943070  s :     0.943070
      pz      :     0.003576  p :     0.022203
      px      :     0.009965
      py      :     0.008662
  8 H s       :     0.942232  s :     0.942232
      pz      :     0.004335  p :     0.021547
      px      :     0.010877
      py      :     0.006336
  9 C s       :     3.044471  s :     3.044471
      pz      :     0.949881  p :     2.989320
      px      :     1.043899
      py      :     0.995540
      dz2     :     0.006611  d :     0.035016
      dxz     :     0.006881
      dyz     :     0.009575
      dx2y2   :     0.003650
      dxy     :     0.008299
 10 H s       :     0.955907  s :     0.955907
      pz      :     0.006634  p :     0.024056
      px      :     0.007329
      py      :     0.010093
 11 H s       :     0.954088  s :     0.954088
      pz      :     0.005130  p :     0.023558
      px      :     0.011708
      py      :     0.006720
 12 C s       :     2.986555  s :     2.986555
      pz      :     0.974824  p :     3.014748
      px      :     1.016315
      py      :     1.023609
      dz2     :     0.006311  d :     0.028256
      dxz     :     0.007461
      dyz     :     0.004529
      dx2y2   :     0.001835
      dxy     :     0.008119
 13 H s       :     0.964356  s :     0.964356
      pz      :     0.005884  p :     0.026297
      px      :     0.008053
      py      :     0.012361
 14 H s       :     0.941044  s :     0.941044
      pz      :     0.005632  p :     0.024555
      px      :     0.009390
      py      :     0.009532
 15 H s       :     0.939834  s :     0.939834
      pz      :     0.009996  p :     0.023145
      px      :     0.007320
      py      :     0.005829
 16 S s       :     5.855480  s :     5.855480
      pz      :     3.150583  p :     9.965479
      px      :     3.214579
      py      :     3.600317
      dz2     :     0.029577  d :     0.095510
      dxz     :     0.011929
      dyz     :     0.018777
      dx2y2   :     0.018067
      dxy     :     0.017160
 17 C s       :     3.167139  s :     3.167139
      pz      :     0.958149  p :     2.894318
      px      :     0.895002
      py      :     1.041167
      dz2     :     0.010593  d :     0.034570
      dxz     :     0.007763
      dyz     :     0.004283
      dx2y2   :     0.006285
      dxy     :     0.005645
 18 C s       :     3.178585  s :     3.178585
      pz      :     0.923584  p :     2.798409
      px      :     0.867318
      py      :     1.007506
      dz2     :     0.008693  d :     0.033649
      dxz     :     0.010112
      dyz     :     0.006742
      dx2y2   :     0.004230
      dxy     :     0.003872
 19 C s       :     3.074018  s :     3.074018
      pz      :     0.977554  p :     2.927898
      px      :     0.959448
      py      :     0.990896
      dz2     :     0.009116  d :     0.041375
      dxz     :     0.013620
      dyz     :     0.005808
      dx2y2   :     0.005534
      dxy     :     0.007297
 20 C s       :     3.084110  s :     3.084110
      pz      :     0.917828  p :     3.001270
      px      :     1.002932
      py      :     1.080510
      dz2     :     0.010556  d :     0.041328
      dxz     :     0.010079
      dyz     :     0.006511
      dx2y2   :     0.006976
      dxy     :     0.007208
 21 H s       :     0.967244  s :     0.967244
      pz      :     0.004029  p :     0.025884
      px      :     0.014752
      py      :     0.007103
 22 C s       :     2.990795  s :     2.990795
      pz      :     0.956294  p :     2.925390
      px      :     0.996593
      py      :     0.972503
      dz2     :     0.007291  d :     0.034173
      dxz     :     0.008468
      dyz     :     0.005239
      dx2y2   :     0.004143
      dxy     :     0.009032
 23 H s       :     0.964375  s :     0.964375
      pz      :     0.009973  p :     0.024131
      px      :     0.009653
      py      :     0.004505
 24 H s       :     0.935264  s :     0.935264
      pz      :     0.004751  p :     0.022532
      px      :     0.008961
      py      :     0.008820
 25 C s       :     3.027981  s :     3.027981
      pz      :     1.000500  p :     2.961143
      px      :     1.019259
      py      :     0.941384
      dz2     :     0.005904  d :     0.035115
      dxz     :     0.010046
      dyz     :     0.003692
      dx2y2   :     0.006797
      dxy     :     0.008675
 26 H s       :     0.943703  s :     0.943703
      pz      :     0.011699  p :     0.022826
      px      :     0.006997
      py      :     0.004130
 27 H s       :     0.952301  s :     0.952301
      pz      :     0.011585  p :     0.024239
      px      :     0.007965
      py      :     0.004689
 28 C s       :     3.024274  s :     3.024274
      pz      :     1.046356  p :     3.021494
      px      :     0.995168
      py      :     0.979970
      dz2     :     0.003929  d :     0.027986
      dxz     :     0.009322
      dyz     :     0.002208
      dx2y2   :     0.005187
      dxy     :     0.007341
 29 H s       :     0.953995  s :     0.953995
      pz      :     0.006271  p :     0.025391
      px      :     0.006947
      py      :     0.012173
 30 H s       :     0.939940  s :     0.939940
      pz      :     0.010231  p :     0.023901
      px      :     0.008708
      py      :     0.004962
 31 H s       :     0.944547  s :     0.944547
      pz      :     0.010363  p :     0.022310
      px      :     0.007873
      py      :     0.004074
 32 H s       :     0.927926  s :     0.927926
      pz      :     0.004701  p :     0.023553
      px      :     0.014034
      py      :     0.004818
 33 H s       :     0.914163  s :     0.914163
      pz      :     0.014085  p :     0.023481
      px      :     0.004394
      py      :     0.005003


                     *******************************
                     * LOEWDIN POPULATION ANALYSIS *
                     *******************************

----------------------
LOEWDIN ATOMIC CHARGES
----------------------
   0 S :    0.377622
   1 C :   -0.187109
   2 C :   -0.068384
   3 C :   -0.060296
   4 C :   -0.178740
   5 H :    0.033606
   6 C :   -0.027596
   7 H :    0.030076
   8 H :    0.031180
   9 C :   -0.048231
  10 H :    0.022513
  11 H :    0.022428
  12 C :   -0.065219
  13 H :    0.017296
  14 H :    0.028455
  15 H :    0.030103
  16 S :    0.363666
  17 C :   -0.161170
  18 C :   -0.065788
  19 C :   -0.043337
  20 C :   -0.187221
  21 H :    0.024338
  22 C :   -0.031451
  23 H :    0.021210
  24 H :    0.038840
  25 C :   -0.026289
  26 H :    0.030214
  27 H :    0.015533
  28 C :   -0.072169
  29 H :    0.018799
  30 H :    0.027765
  31 H :    0.029492
  32 H :    0.034122
  33 H :    0.025745

-------------------------------
LOEWDIN REDUCED ORBITAL CHARGES
-------------------------------
  0 S s       :     5.532458  s :     5.532458
      pz      :     3.350555  p :     9.969627
      px      :     3.059154
      py      :     3.559918
      dz2     :     0.030239  d :     0.120294
      dxz     :     0.024761
      dyz     :     0.018652
      dx2y2   :     0.019314
      dxy     :     0.027328
  1 C s       :     2.921894  s :     2.921894
      pz      :     1.023913  p :     3.180743
      px      :     1.079931
      py      :     1.076900
      dz2     :     0.021087  d :     0.084473
      dxz     :     0.022925
      dyz     :     0.013304
      dx2y2   :     0.016129
      dxy     :     0.011027
  2 C s       :     2.866696  s :     2.866696
      pz      :     1.025006  p :     3.095167
      px      :     1.072259
      py      :     0.997903
      dz2     :     0.023116  d :     0.106521
      dxz     :     0.034985
      dyz     :     0.012499
      dx2y2   :     0.016884
      dxy     :     0.019036
  3 C s       :     2.860753  s :     2.860753
      pz      :     1.047874  p :     3.104054
      px      :     1.037233
      py      :     1.018947
      dz2     :     0.025337  d :     0.095489
      dxz     :     0.025288
      dyz     :     0.016578
      dx2y2   :     0.016174
      dxy     :     0.012112
  4 C s       :     2.907851  s :     2.907851
      pz      :     1.097578  p :     3.165394
      px      :     1.002022
      py      :     1.065795
      dz2     :     0.025091  d :     0.105495
      dxz     :     0.029394
      dyz     :     0.015775
      dx2y2   :     0.017700
      dxy     :     0.017534
  5 H s       :     0.896698  s :     0.896698
      pz      :     0.014649  p :     0.069696
      px      :     0.037451
      py      :     0.017596
  6 C s       :     2.861152  s :     2.861152
      pz      :     0.980334  p :     3.090680
      px      :     1.066498
      py      :     1.043848
      dz2     :     0.022167  d :     0.075764
      dxz     :     0.007775
      dyz     :     0.018537
      dx2y2   :     0.005614
      dxy     :     0.021671
  7 H s       :     0.905641  s :     0.905641
      pz      :     0.011366  p :     0.064283
      px      :     0.027693
      py      :     0.025224
  8 H s       :     0.904834  s :     0.904834
      pz      :     0.014038  p :     0.063987
      px      :     0.030740
      py      :     0.019209
  9 C s       :     2.835402  s :     2.835402
      pz      :     1.015223  p :     3.128573
      px      :     1.076298
      py      :     1.037052
      dz2     :     0.014406  d :     0.084256
      dxz     :     0.017112
      dyz     :     0.024940
      dx2y2   :     0.008856
      dxy     :     0.018941
 10 H s       :     0.906874  s :     0.906874
      pz      :     0.019891  p :     0.070613
      px      :     0.020325
      py      :     0.030397
 11 H s       :     0.907489  s :     0.907489
      pz      :     0.015814  p :     0.070083
      px      :     0.033116
      py      :     0.021154
 12 C s       :     2.822720  s :     2.822720
      pz      :     1.029062  p :     3.170751
      px      :     1.064166
      py      :     1.077523
      dz2     :     0.015400  d :     0.071748
      dxz     :     0.020433
      dyz     :     0.011048
      dx2y2   :     0.004398
      dxy     :     0.020469
 13 H s       :     0.908398  s :     0.908398
      pz      :     0.016686  p :     0.074306
      px      :     0.023249
      py      :     0.034371
 14 H s       :     0.902123  s :     0.902123
      pz      :     0.016661  p :     0.069423
      px      :     0.027111
      py      :     0.025652
 15 H s       :     0.905986  s :     0.905986
      pz      :     0.028713  p :     0.063910
      px      :     0.020028
      py      :     0.015169
 16 S s       :     5.545309  s :     5.545309
      pz      :     3.162996  p :     9.975061
      px      :     3.232615
      py      :     3.579451
      dz2     :     0.037521  d :     0.115964
      dxz     :     0.013613
      dyz     :     0.023031
      dx2y2   :     0.021762
      dxy     :     0.020038
 17 C s       :     2.939182  s :     2.939182
      pz      :     1.082019  p :     3.141491
      px      :     1.005562
      py      :     1.053910
      dz2     :     0.026792  d :     0.080497
      dxz     :     0.020313
      dyz     :     0.008766
      dx2y2   :     0.012967
      dxy     :     0.011658
 18 C s       :     2.862365  s :     2.862365
      pz      :     1.043549  p :     3.115262
      px      :     1.050085
      py      :     1.021628
      dz2     :     0.023990  d :     0.088161
      dxz     :     0.030892
      dyz     :     0.015187
      dx2y2   :     0.009611
      dxy     :     0.008480
 19 C s       :     2.874114  s :     2.874114
      pz      :     1.037217  p :     3.068184
      px      :     1.045718
      py      :     0.985249
      dz2     :     0.022956  d :     0.101039
      dxz     :     0.037020
      dyz     :     0.011365
      dx2y2   :     0.014175
      dxy     :     0.015523
 20 C s       :     2.922592  s :     2.922592
      pz      :     1.001426  p :     3.166382
      px      :     1.076638
      py      :     1.088318
      dz2     :     0.025394  d :     0.098248
      dxz     :     0.027088
      dyz     :     0.013219
      dx2y2   :     0.017767
      dxy     :     0.014780
 21 H s       :     0.896952  s :     0.896952
      pz      :     0.014400  p :     0.078710
      px      :     0.042614
      py      :     0.021697
 22 C s       :     2.835674  s :     2.835674
      pz      :     1.023493  p :     3.110818
      px      :     1.056409
      py      :     1.030916
      dz2     :     0.019714  d :     0.084959
      dxz     :     0.021872
      dyz     :     0.010652
      dx2y2   :     0.010336
      dxy     :     0.022385
 23 H s       :     0.906928  s :     0.906928
      pz      :     0.029987  p :     0.071863
      px      :     0.027487
      py      :     0.014389
 24 H s       :     0.896673  s :     0.896673
      pz      :     0.013164  p :     0.064488
      px      :     0.024735
      py      :     0.026589
 25 C s       :     2.829909  s :     2.829909
      pz      :     1.066561  p :     3.110916
      px      :     1.044706
      py      :     0.999649
      dz2     :     0.016402  d :     0.085464
      dxz     :     0.024591
      dyz     :     0.007541
      dx2y2   :     0.014460
      dxy     :     0.022471
 26 H s       :     0.902542  s :     0.902542
      pz      :     0.032659  p :     0.067244
      px      :     0.021055
      py      :     0.013529
 27 H s       :     0.909562  s :     0.909562
      pz      :     0.032708  p :     0.074905
      px      :     0.025197
      py      :     0.017000
 28 C s       :     2.838251  s :     2.838251
      pz      :     1.080715  p :     3.164680
      px      :     1.045661
      py      :     1.038304
      dz2     :     0.010337  d :     0.069238
      dxz     :     0.022789
      dyz     :     0.004658
      dx2y2   :     0.011720
      dxy     :     0.019733
 29 H s       :     0.907646  s :     0.907646
      pz      :     0.017109  p :     0.073555
      px      :     0.019960
      py      :     0.036487
 30 H s       :     0.905056  s :     0.905056
      pz      :     0.027851  p :     0.067179
      px      :     0.024320
      py      :     0.015007
 31 H s       :     0.909156  s :     0.909156
      pz      :     0.027953  p :     0.061352
      px      :     0.022025
      py      :     0.011374
 32 H s       :     0.892954  s :     0.892954
      pz      :     0.017111  p :     0.072924
      px      :     0.040163
      py      :     0.015651
 33 H s       :     0.899382  s :     0.899382
      pz      :     0.041270  p :     0.074873
      px      :     0.017145
      py      :     0.016458


                      *****************************
                      * MAYER POPULATION ANALYSIS *
                      *****************************

  NA   - Mulliken gross atomic population
  ZA   - Total nuclear charge
  QA   - Mulliken gross atomic charge
  VA   - Mayer's total valence
  BVA  - Mayer's bonded valence
  FA   - Mayer's free valence

  ATOM       NA         ZA         QA         VA         BVA        FA
  0 S     15.8939    16.0000     0.1061     2.4321     2.4321     0.0000
  1 C      6.1199     6.0000    -0.1199     3.8615     3.8615    -0.0000
  2 C      6.0685     6.0000    -0.0685     4.0192     4.0192     0.0000
  3 C      5.9735     6.0000     0.0265     3.9404     3.9404    -0.0000
  4 C      6.1652     6.0000    -0.1652     3.9328     3.9328    -0.0000
  5 H      0.9862     1.0000     0.0138     1.0030     1.0030    -0.0000
  6 C      5.9654     6.0000     0.0346     3.9580     3.9580    -0.0000
  7 H      0.9653     1.0000     0.0347     0.9879     0.9879    -0.0000
  8 H      0.9638     1.0000     0.0362     0.9806     0.9806    -0.0000
  9 C      6.0688     6.0000    -0.0688     4.0519     4.0519    -0.0000
 10 H      0.9800     1.0000     0.0200     0.9913     0.9913    -0.0000
 11 H      0.9776     1.0000     0.0224     0.9767     0.9767    -0.0000
 12 C      6.0296     6.0000    -0.0296     3.9841     3.9841     0.0000
 13 H      0.9907     1.0000     0.0093     1.0029     1.0029     0.0000
 14 H      0.9656     1.0000     0.0344     0.9905     0.9905    -0.0000
 15 H      0.9630     1.0000     0.0370     0.9863     0.9863    -0.0000
 16 S     15.9165    16.0000     0.0835     2.4419     2.4419     0.0000
 17 C      6.0960     6.0000    -0.0960     3.8508     3.8508    -0.0000
 18 C      6.0106     6.0000    -0.0106     3.9307     3.9307    -0.0000
 19 C      6.0433     6.0000    -0.0433     3.9629     3.9629     0.0000
 20 C      6.1267     6.0000    -0.1267     3.9175     3.9175     0.0000
 21 H      0.9931     1.0000     0.0069     1.0007     1.0007    -0.0000
 22 C      5.9504     6.0000     0.0496     3.9801     3.9801     0.0000
 23 H      0.9885     1.0000     0.0115     1.0027     1.0027    -0.0000
 24 H      0.9578     1.0000     0.0422     0.9764     0.9764     0.0000
 25 C      6.0242     6.0000    -0.0242     4.0770     4.0770     0.0000
 26 H      0.9665     1.0000     0.0335     0.9763     0.9763     0.0000
 27 H      0.9765     1.0000     0.0235     0.9876     0.9876    -0.0000
 28 C      6.0738     6.0000    -0.0738     3.9911     3.9911    -0.0000
 29 H      0.9794     1.0000     0.0206     0.9875     0.9875    -0.0000
 30 H      0.9638     1.0000     0.0362     0.9908     0.9908    -0.0000
 31 H      0.9669     1.0000     0.0331     0.9895     0.9895    -0.0000
 32 H      0.9515     1.0000     0.0485     1.0054     1.0054    -0.0000
 33 H      0.9376     1.0000     0.0624     0.9921     0.9921    -0.0000

  Mayer bond orders larger than 0.100000
B(  0-S ,  1-C ) :   1.1229 B(  0-S ,  4-C ) :   1.1209 B(  1-C ,  2-C ) :   1.6649 
B(  1-C , 32-H ) :   0.9612 B(  2-C ,  3-C ) :   1.2192 B(  2-C ,  6-C ) :   1.0024 
B(  3-C ,  4-C ) :   1.6200 B(  3-C ,  5-H ) :   0.9891 B(  4-C , 20-C ) :   1.0502 
B(  6-C ,  7-H ) :   0.9469 B(  6-C ,  8-H ) :   0.9540 B(  6-C ,  9-C ) :   1.0538 
B(  9-C , 10-H ) :   0.9633 B(  9-C , 11-H ) :   0.9573 B(  9-C , 12-C ) :   1.0614 
B( 12-C , 13-H ) :   0.9776 B( 12-C , 14-H ) :   0.9763 B( 12-C , 15-H ) :   0.9776 
B( 16-S , 17-C ) :   1.1488 B( 16-S , 20-C ) :   1.1137 B( 17-C , 18-C ) :   1.6271 
B( 17-C , 33-H ) :   0.9677 B( 18-C , 19-C ) :   1.1964 B( 18-C , 21-H ) :   1.0022 
B( 19-C , 20-C ) :   1.6144 B( 19-C , 22-C ) :   1.0306 B( 22-C , 23-H ) :   0.9385 
B( 22-C , 24-H ) :   0.9340 B( 22-C , 25-C ) :   1.0736 B( 25-C , 26-H ) :   0.9518 
B( 25-C , 27-H ) :   0.9597 B( 25-C , 28-C ) :   1.0715 B( 28-C , 29-H ) :   0.9750 
B( 28-C , 30-H ) :   0.9779 B( 28-C , 31-H ) :   0.9753 

-------
TIMINGS
-------

Total SCF time: 0 days 0 hours 0 min 27 sec 

Total time                  ....      27.331 sec
Sum of individual times     ....      26.346 sec  ( 96.4%)

Fock matrix formation       ....      24.519 sec  ( 89.7%)
  XC integration            ....       1.759 sec  (  7.2% of F)
    Basis function eval.    ....       0.212 sec  ( 12.0% of XC)
    Density eval.           ....       0.149 sec  (  8.5% of XC)
    XC-Functional eval.     ....       0.181 sec  ( 10.3% of XC)
    XC-Potential eval.      ....       0.174 sec  (  9.9% of XC)
Diagonalization             ....       0.130 sec  (  0.5%)
Density matrix formation    ....       0.020 sec  (  0.1%)
Population analysis         ....       0.069 sec  (  0.3%)
Initial guess               ....       0.191 sec  (  0.7%)
Orbital Transformation      ....       0.000 sec  (  0.0%)
Orbital Orthonormalization  ....       0.000 sec  (  0.0%)
DIIS solution               ....       0.134 sec  (  0.5%)
SOSCF solution              ....       0.133 sec  (  0.5%)
Grid generation             ....       1.149 sec  (  4.2%)


-------------------------------------------------------------------------------
                          DFT DISPERSION CORRECTION                            
                                                                               
                              DFTD3 V3.1  Rev 1                                
                              USING zero damping                               
-------------------------------------------------------------------------------
The omegaB97X-D3 functional is recognized. Fit by Chai et al.
Active option DFTDOPT                   ...         3   

molecular C6(AA) [au] = 14231.403977 


            DFT-D V3
 parameters
 s6 scaling factor         :     1.0000 
 rs6 scaling factor        :     1.2810 
 s8 scaling factor         :     1.0000 
 rs8 scaling factor        :     1.0940 
 Damping factor alpha6     :    14.0000 
 Damping factor alpha8     :    16.0000 
 ad hoc parameters k1-k3   :    16.0000     1.3333    -4.0000 

 Edisp/kcal,au: -8.718794736346  -0.013894282344 
 E6   /kcal   :  -4.057134184 
 E8   /kcal   :  -4.661660552 
 % E8         :  53.466800090 

-------------------------   ----------------
Dispersion correction           -0.013894282
-------------------------   ----------------


-------------------------   --------------------
FINAL SINGLE POINT ENERGY     -1339.866041916965
-------------------------   --------------------


                            ***************************************
                            *     ORCA property calculations      *
                            ***************************************

                                    ---------------------
                                    Active property flags
                                    ---------------------
   (+) Dipole Moment


------------------------------------------------------------------------------
                       ORCA ELECTRIC PROPERTIES CALCULATION
------------------------------------------------------------------------------

Dipole Moment Calculation                       ... on
Quadrupole Moment Calculation                   ... off
Polarizability Calculation                      ... off
GBWName                                         ... config_6056.gbw
Electron density file                           ... config_6056.scfp
The origin for moment calculation is the CENTER OF MASS  = (-65.623496,  2.481823 183.753182)

-------------
DIPOLE MOMENT
-------------
                                X             Y             Z
Electronic contribution:      4.30182       6.42981      28.63080
Nuclear contribution   :     -4.75292      -6.55809     -29.24874
                        -----------------------------------------
Total Dipole Moment    :     -0.45111      -0.12828      -0.61794
                        -----------------------------------------
Magnitude (a.u.)       :      0.77576
Magnitude (Debye)      :      1.97183



--------------------
Rotational spectrum 
--------------------
 
Rotational constants in cm-1:     0.019517     0.007909     0.006361 
Rotational constants in MHz :   585.100195   237.110066   190.694926 

 Dipole components along the rotational axes: 
x,y,z [a.u.] :    -0.159849    -0.736234     0.184972 
x,y,z [Debye]:    -0.406305    -1.871357     0.470160 

 

Timings for individual modules:

Sum of individual times         ...       28.428 sec (=   0.474 min)
GTO integral calculation        ...        0.755 sec (=   0.013 min)   2.7 %
SCF iterations                  ...       27.673 sec (=   0.461 min)  97.3 %
                             ****ORCA TERMINATED NORMALLY****
TOTAL RUN TIME: 0 days 0 hours 0 minutes 29 seconds 155 msec
