
                                 *****************
                                 * O   R   C   A *
                                 *****************

           --- An Ab Initio, DFT and Semiempirical electronic structure package ---

                  #######################################################
                  #                        -***-                        #
                  #          Department of theory and spectroscopy      #
                  #               Directorship: Frank Neese             #
                  #        Max Planck Institute fuer Kohlenforschung    #
                  #                Kaiser Wilhelm Platz 1               #
                  #                 D-45470 Muelheim/Ruhr               #
                  #                      Germany                        #
                  #                                                     #
                  #                  All rights reserved                #
                  #                        -***-                        #
                  #######################################################


                         Program Version 4.2.1 -  RELEASE  -


 With contributions from (in alphabetic order):
   Daniel Aravena         : Magnetic Suceptibility
   Michael Atanasov       : Ab Initio Ligand Field Theory (pilot matlab implementation)
   Alexander A. Auer      : GIAO ZORA, VPT2
   Ute Becker             : Parallelization
   Giovanni Bistoni       : ED, misc. LED, open-shell LED, HFLD
   Martin Brehm           : Molecular dynamics
   Dmytro Bykov           : SCF Hessian
   Vijay G. Chilkuri      : MRCI spin determinant printing, contributions to CSF-ICE
   Dipayan Datta          : RHF DLPNO-CCSD density
   Achintya Kumar Dutta   : EOM-CC, STEOM-CC
   Dmitry Ganyushin       : Spin-Orbit,Spin-Spin,Magnetic field MRCI
   Miquel Garcia          : C-PCM Hessian, Gaussian charge scheme
   Yang Guo               : DLPNO-NEVPT2, CIM, IAO-localization
   Andreas Hansen         : Spin unrestricted coupled pair/coupled cluster methods
   Benjamin Helmich-Paris : CASSCF linear response (MC-RPA)
   Lee Huntington         : MR-EOM, pCC
   Robert Izsak           : Overlap fitted RIJCOSX, COSX-SCS-MP3, EOM
   Christian Kollmar      : KDIIS, OOCD, Brueckner-CCSD(T), CCSD density
   Simone Kossmann        : Meta GGA functionals, TD-DFT gradient, OOMP2, MP2 Hessian
   Martin Krupicka        : AUTO-CI
   Lucas Lang             : DCDCAS
   Dagmar Lenk            : GEPOL surface, SMD
   Dimitrios Liakos       : Extrapolation schemes; Compound Job, initial MDCI parallelization
   Dimitrios Manganas     : Further ROCIS development; embedding schemes
   Dimitrios Pantazis     : SARC Basis sets
   Taras Petrenko         : DFT Hessian,TD-DFT gradient, ASA, ECA, R-Raman, ABS, FL, XAS/XES, NRVS
   Peter Pinski           : DLPNO-MP2, DLPNO-MP2 Gradient
   Christoph Reimann      : Effective Core Potentials
   Marius Retegan         : Local ZFS, SOC
   Christoph Riplinger    : Optimizer, TS searches, QM/MM, DLPNO-CCSD(T), (RO)-DLPNO pert. Triples
   Tobias Risthaus        : Range-separated hybrids, TD-DFT gradient, RPA, STAB
   Michael Roemelt        : Original ROCIS implementation
   Masaaki Saitow         : Open-shell DLPNO-CCSD energy and density
   Barbara Sandhoefer     : DKH picture change effects
   Avijit Sen             : IP-ROCIS
   Kantharuban Sivalingam : CASSCF convergence, NEVPT2, FIC-MRCI
   Bernardo de Souza      : ESD, SOC TD-DFT
   Georgi Stoychev        : AutoAux, RI-MP2 NMR
   Willem Van den Heuvel  : Paramagnetic NMR
   Boris Wezisla          : Elementary symmetry handling
   Frank Wennmohs         : Technical directorship


 We gratefully acknowledge several colleagues who have allowed us to
 interface, adapt or use parts of their codes:
   Stefan Grimme, W. Hujo, H. Kruse,             : VdW corrections, initial TS optimization,
                  C. Bannwarth                     DFT functionals, gCP, sTDA/sTD-DF
   Ed Valeev, F. Pavosevic, A. Kumar             : LibInt (2-el integral package), F12 methods
   Garnet Chan, S. Sharma, J. Yang, R. Olivares  : DMRG
   Ulf Ekstrom                                   : XCFun DFT Library
   Mihaly Kallay                                 : mrcc  (arbitrary order and MRCC methods)
   Andreas Klamt, Michael Diedenhofen            : otool_cosmo (COSMO solvation model)
   Jiri Pittner, Ondrej Demel                    : Mk-CCSD
   Frank Weinhold                                : gennbo (NPA and NBO analysis)
   Christopher J. Cramer and Donald G. Truhlar   : smd solvation model
   Lars Goerigk                                  : TD-DFT with DH, B97 family of functionals
   V. Asgeirsson, H. Jonsson                     : NEB implementation
   FAccTs GmbH                                   : IRC, NEB, NEB-TS, Multilevel, MM, QM/MM, CI optimization
   S Lehtola, MJT Oliveira, MAL Marques          : LibXC Library


 Your calculation uses the libint2 library for the computation of 2-el integrals
 For citations please refer to: http://libint.valeyev.net

 Your ORCA version has been built with support for libXC version: 4.2.3
 For citations please refer to: https://tddft.org/programs/libxc/

 This ORCA versions uses:
   CBLAS   interface :  Fast vector & matrix operations
   LAPACKE interface :  Fast linear algebra routines
   SCALAPACK package :  Parallel linear algebra routines


Your calculation utilizes the atom-pairwise dispersion correction
with the zero-damping scheme (D30)
Cite in your paper:
S.Grimme, J.Antony, S.Ehrlich and H.Krieg, J.Chem.Phys., 132, (2010), 154104 
   

XCFun DFT library Copyright 2009-2010 Ulf Ekstrom and contributors.
See http://admol.org/xcfun for more information. This is free soft-
ware; see the source code for copying conditions. There is ABSOLUTELY
NO WARRANTY; not even for MERCHANTABILITY or FITNESS FOR A PARTICULAR
PURPOSE. For details see the documentation. Scientific users of this 
library should cite U. Ekstrom, L. Visscher, R. Bast, A. J. Thorvald-
sen and K. Ruud; J.Chem.Theor.Comp. 2010, DOI: 10.1021/ct100117s
XCFun Version 0.99 
----- Orbital basis set information -----
Your calculation utilizes the basis: def2-SVP
   F. Weigend and R. Ahlrichs, Phys. Chem. Chem. Phys. 7, 3297 (2005).

================================================================================
                                        WARNINGS
                       Please study these warnings very carefully!
================================================================================


INFO   : the flag for use of LIBINT has been found!

================================================================================
                                       INPUT FILE
================================================================================
NAME = config_662.inp
|  1> ! wB97X-D3 SP def2-SVP
|  2> %pal
|  3> nprocs 16
|  4> end
|  5> 
|  6> * xyz 0 1
|  7> S 	 -10.9388 	 75.7104 	 48.4365 	 
|  8> C 	 -12.2555 	 76.0337 	 49.4663 	 
|  9> C 	 -12.9819 	 74.8782 	 49.7611 	 
| 10> C 	 -12.3536 	 73.7279 	 49.2164 	 
| 11> C 	 -11.2631 	 74.0039 	 48.4421 	 
| 12> H 	 -12.6624 	 72.6884 	 49.3577 	 
| 13> C 	 -14.2594 	 74.6938 	 50.5391 	 
| 14> H 	 -14.4415 	 75.5371 	 51.1467 	 
| 15> H 	 -14.1376 	 73.8328 	 51.1187 	 
| 16> C 	 -15.4774 	 74.4546 	 49.603 	 
| 17> H 	 -15.6391 	 75.3285 	 49.024 	 
| 18> H 	 -15.3072 	 73.6359 	 48.8792 	 
| 19> C 	 -16.8277 	 74.2153 	 50.3906 	 
| 20> H 	 -17.6127 	 74.0721 	 49.6287 	 
| 21> H 	 -16.737 	 73.4073 	 51.0849 	 
| 22> H 	 -17.0603 	 75.077 	 51.023 	 
| 23> S 	 -8.78461 	 73.4631 	 47.4173 	 
| 24> C 	 -8.54208 	 72.0477 	 46.3707 	 
| 25> C 	 -9.792 	 71.4402 	 46.1285 	 
| 26> C 	 -10.8982 	 72.1424 	 46.6575 	 
| 27> C 	 -10.4653 	 73.1444 	 47.4864 	 
| 28> H 	 -9.81819 	 70.666 	 45.4322 	 
| 29> C 	 -12.2475 	 71.6766 	 46.3753 	 
| 30> H 	 -12.3846 	 71.533 	 45.3273 	 
| 31> H 	 -12.9594 	 72.4066 	 46.5719 	 
| 32> C 	 -12.5494 	 70.311 	 47.1035 	 
| 33> H 	 -12.6782 	 70.3969 	 48.1822 	 
| 34> H 	 -11.8847 	 69.4807 	 46.9721 	 
| 35> C 	 -13.9312 	 69.7857 	 46.7691 	 
| 36> H 	 -13.9589 	 69.6874 	 45.7117 	 
| 37> H 	 -14.6794 	 70.4836 	 47.0945 	 
| 38> H 	 -14.1782 	 68.8858 	 47.2434 	 
| 39> H 	 -12.4959 	 77.0814 	 49.6946 	 
| 40> H 	 -7.66518 	 71.8206 	 45.7972 	 
| 41> *
| 42> 
| 43>                          ****END OF INPUT****
================================================================================

                       ****************************
                       * Single Point Calculation *
                       ****************************

---------------------------------
CARTESIAN COORDINATES (ANGSTROEM)
---------------------------------
  S    -10.938800   75.710400   48.436500
  C    -12.255500   76.033700   49.466300
  C    -12.981900   74.878200   49.761100
  C    -12.353600   73.727900   49.216400
  C    -11.263100   74.003900   48.442100
  H    -12.662400   72.688400   49.357700
  C    -14.259400   74.693800   50.539100
  H    -14.441500   75.537100   51.146700
  H    -14.137600   73.832800   51.118700
  C    -15.477400   74.454600   49.603000
  H    -15.639100   75.328500   49.024000
  H    -15.307200   73.635900   48.879200
  C    -16.827700   74.215300   50.390600
  H    -17.612700   74.072100   49.628700
  H    -16.737000   73.407300   51.084900
  H    -17.060300   75.077000   51.023000
  S     -8.784610   73.463100   47.417300
  C     -8.542080   72.047700   46.370700
  C     -9.792000   71.440200   46.128500
  C    -10.898200   72.142400   46.657500
  C    -10.465300   73.144400   47.486400
  H     -9.818190   70.666000   45.432200
  C    -12.247500   71.676600   46.375300
  H    -12.384600   71.533000   45.327300
  H    -12.959400   72.406600   46.571900
  C    -12.549400   70.311000   47.103500
  H    -12.678200   70.396900   48.182200
  H    -11.884700   69.480700   46.972100
  C    -13.931200   69.785700   46.769100
  H    -13.958900   69.687400   45.711700
  H    -14.679400   70.483600   47.094500
  H    -14.178200   68.885800   47.243400
  H    -12.495900   77.081400   49.694600
  H     -7.665180   71.820600   45.797200

----------------------------
CARTESIAN COORDINATES (A.U.)
----------------------------
  NO LB      ZA    FRAG     MASS         X           Y           Z
   0 S    16.0000    0    32.060  -20.671336  143.071921   91.531720
   1 C     6.0000    0    12.011  -23.159539  143.682870   93.477760
   2 C     6.0000    0    12.011  -24.532236  141.499291   94.034851
   3 C     6.0000    0    12.011  -23.344921  139.325539   93.005517
   4 C     6.0000    0    12.011  -21.284174  139.847104   91.542302
   5 H     1.0000    0     1.008  -23.928468  137.361169   93.272536
   6 C     6.0000    0    12.011  -26.946361  141.150826   95.505058
   7 H     1.0000    0     1.008  -27.290480  142.744432   96.653256
   8 H     1.0000    0     1.008  -26.716192  139.523772   96.600343
   9 C     6.0000    0    12.011  -29.248047  140.698803   93.736085
  10 H     1.0000    0     1.008  -29.553616  142.350235   92.641934
  11 H     1.0000    0     1.008  -28.926416  139.151685   92.368302
  12 C     6.0000    0    12.011  -31.799744  140.246592   95.224434
  13 H     1.0000    0     1.008  -33.283179  139.975983   93.784651
  14 H     1.0000    0     1.008  -31.628346  138.719693   96.536471
  15 H     1.0000    0     1.008  -32.239295  141.874969   96.419497
  16 S    16.0000    0    32.060  -16.600507  138.825140   89.605711
  17 C     6.0000    0    12.011  -16.142192  136.150422   87.627924
  18 C     6.0000    0    12.011  -18.504198  135.002413   87.170232
  19 C     6.0000    0    12.011  -20.594613  136.329379   88.169897
  20 C     6.0000    0    12.011  -19.776551  138.222884   89.736291
  21 H     1.0000    0     1.008  -18.553690  133.539387   85.854416
  22 C     6.0000    0    12.011  -23.144421  135.449144   87.636616
  23 H     1.0000    0     1.008  -23.403502  135.177780   85.656183
  24 H     1.0000    0     1.008  -24.489717  136.828644   88.008137
  25 C     6.0000    0    12.011  -23.714929  132.868534   89.012715
  26 H     1.0000    0     1.008  -23.958326  133.030862   91.051163
  27 H     1.0000    0     1.008  -22.458828  131.299495   88.764405
  28 C     6.0000    0    12.011  -26.326153  131.875861   88.380791
  29 H     1.0000    0     1.008  -26.378498  131.690101   86.382594
  30 H     1.0000    0     1.008  -27.740046  133.194701   88.995707
  31 H     1.0000    0     1.008  -26.792915  130.175297   89.277088
  32 H     1.0000    0     1.008  -23.613829  145.662736   93.909184
  33 H     1.0000    0     1.008  -14.485091  135.721265   86.544166

--------------------------------
INTERNAL COORDINATES (ANGSTROEM)
--------------------------------
 S      0   0   0     0.000000000000     0.00000000     0.00000000
 C      1   0   0     1.702559784560     0.00000000     0.00000000
 C      2   1   0     1.396332428185   111.89335580     0.00000000
 C      3   2   1     1.419383341455   111.05997504     5.20047463
 C      4   3   2     1.365615883036   114.03393799   354.75053415
 H      4   3   2     1.093564529417   126.56777692   175.04409241
 C      3   2   1     1.507081155744   130.63315140   184.75507449
 H      7   3   2     1.055221806067   110.22732077   341.46236998
 H      7   3   2     1.045032248306   106.75772936   220.74997036
 C      7   3   2     1.554678053489   111.84460081   103.58464770
 H     10   7   3     1.060702173091   108.74434016   295.10636016
 H     10   7   3     1.105949442787   112.79226937    52.42036281
 C     10   7   3     1.581419722907   113.10086494   178.32734138
 H     13  10   7     1.103278228735   106.45363857   179.29658169
 H     13  10   7     1.069178647374   111.42809404   304.46351177
 H     13  10   7     1.093873580447   110.50490912    59.27700123
 S      5   4   3     2.735981059894   153.61338684   146.91465083
 C     17   5   4     1.776949498691   120.11249687    64.17556516
 C     18  17   5     1.410679657612   108.85731603     5.09491904
 C     19  18  17     1.413012484021   114.54233092     5.08300225
 C     20  19  18     1.370577112023   110.02669269   349.66061207
 H     19  18  17     1.041587848479   117.20308624   172.57834550
 C     20  19  18     1.455065967577   119.62146270   174.77964755
 H     23  20  19     1.066640225193   110.66130151   308.69469296
 H     23  20  19     1.038437850812   111.96005906   196.73695446
 C     23  20  19     1.576794916912   111.42147200    69.14316800
 H     26  23  20     1.089753155536   114.29915139    72.30401878
 H     26  23  20     1.071676322403   119.71039876   306.80305794
 C     26  23  20     1.515630129682   111.89030245   182.45808385
 H     29  26  23     1.062320544845   105.98918430    57.65387781
 H     29  26  23     1.073663266578   110.07048894   298.62290499
 H     29  26  23     1.046799646542   114.40002927   180.83219489
 H      2   1   3     1.098903244148   118.41709647   187.68389730
 H     18  17   5     1.072114858586   126.54280151   170.01052797

---------------------------
INTERNAL COORDINATES (A.U.)
---------------------------
 S      0   0   0     0.000000000000     0.00000000     0.00000000
 C      1   0   0     3.217371719446     0.00000000     0.00000000
 C      2   1   0     2.638685881182   111.89335580     0.00000000
 C      3   2   1     2.682245794400   111.05997504     5.20047463
 C      4   3   2     2.580640023071   114.03393799   354.75053415
 H      4   3   2     2.066537470369   126.56777692   175.04409241
 C      3   2   1     2.847970645951   130.63315140   184.75507449
 H      7   3   2     1.994080224009   110.22732077   341.46236998
 H      7   3   2     1.974824750415   106.75772936   220.74997036
 C      7   3   2     2.937915747512   111.84460081   103.58464770
 H     10   7   3     2.004436616797   108.74434016   295.10636016
 H     10   7   3     2.089941564829   112.79226937    52.42036281
 C     10   7   3     2.988450179076   113.10086494   178.32734138
 H     13  10   7     2.084893701826   106.45363857   179.29658169
 H     13  10   7     2.020454831773   111.42809404   304.46351177
 H     13  10   7     2.067121492177   110.50490912    59.27700123
 S      5   4   3     5.170254910796   153.61338684   146.91465083
 C     17   5   4     3.357947906336   120.11249687    64.17556516
 C     18  17   5     2.665798215580   108.85731603     5.09491904
 C     19  18  17     2.670206618612   114.54233092     5.08300225
 C     20  19  18     2.590015387143   110.02669269   349.66061207
 H     19  18  17     1.968315778046   117.20308624   172.57834550
 C     20  19  18     2.749676185509   119.62146270   174.77964755
 H     23  20  19     2.015657909039   110.66130151   308.69469296
 H     23  20  19     1.962363145133   111.96005906   196.73695446
 C     23  20  19     2.979710562323   111.42147200    69.14316800
 H     26  23  20     2.059335017539   114.29915139    72.30401878
 H     26  23  20     2.025174753550   119.71039876   306.80305794
 C     26  23  20     2.864125865419   111.89030245   182.45808385
 H     29  26  23     2.007494896195   105.98918430    57.65387781
 H     29  26  23     2.028929533885   110.07048894   298.62290499
 H     29  26  23     1.978164649050   114.40002927   180.83219489
 H      2   1   3     2.076626179118   118.41709647   187.68389730
 H     18  17   5     2.026003466834   126.54280151   170.01052797

---------------------
BASIS SET INFORMATION
---------------------
There are 3 groups of distinct atoms

 Group   1 Type S   : 10s7p1d contracted to 4s3p1d pattern {5311/511/1}
 Group   2 Type C   : 7s4p1d contracted to 3s2p1d pattern {511/31/1}
 Group   3 Type H   : 4s1p contracted to 2s1p pattern {31/1}

Atom   0S    basis set group =>   1
Atom   1C    basis set group =>   2
Atom   2C    basis set group =>   2
Atom   3C    basis set group =>   2
Atom   4C    basis set group =>   2
Atom   5H    basis set group =>   3
Atom   6C    basis set group =>   2
Atom   7H    basis set group =>   3
Atom   8H    basis set group =>   3
Atom   9C    basis set group =>   2
Atom  10H    basis set group =>   3
Atom  11H    basis set group =>   3
Atom  12C    basis set group =>   2
Atom  13H    basis set group =>   3
Atom  14H    basis set group =>   3
Atom  15H    basis set group =>   3
Atom  16S    basis set group =>   1
Atom  17C    basis set group =>   2
Atom  18C    basis set group =>   2
Atom  19C    basis set group =>   2
Atom  20C    basis set group =>   2
Atom  21H    basis set group =>   3
Atom  22C    basis set group =>   2
Atom  23H    basis set group =>   3
Atom  24H    basis set group =>   3
Atom  25C    basis set group =>   2
Atom  26H    basis set group =>   3
Atom  27H    basis set group =>   3
Atom  28C    basis set group =>   2
Atom  29H    basis set group =>   3
Atom  30H    basis set group =>   3
Atom  31H    basis set group =>   3
Atom  32H    basis set group =>   3
Atom  33H    basis set group =>   3


           ************************************************************
           *        Program running with 16 parallel MPI-processes    *
           *              working on a common directory               *
           ************************************************************
------------------------------------------------------------------------------
                           ORCA GTO INTEGRAL CALCULATION
------------------------------------------------------------------------------

                         BASIS SET STATISTICS AND STARTUP INFO

 # of primitive gaussian shells          ...  294
 # of primitive gaussian functions       ...  534
 # of contracted shells                  ...  154
 # of contracted basis functions         ...  322
 Highest angular momentum                ...    2
 Maximum contraction depth               ...    5
 Integral package used                   ... LIBINT
 Integral threshhold            Thresh   ...  1.000e-10
 Primitive cut-off              TCut     ...  1.000e-11


------------------------------ INTEGRAL EVALUATION ----------------------------


 * One electron integrals 
 Pre-screening matrix                    ... done
 Shell pair data                         ... done (   0.003 sec)



           ************************************************************
           *        Program running with 16 parallel MPI-processes    *
           *              working on a common directory               *
           ************************************************************
-------------------------------------------------------------------------------
                                 ORCA SCF
-------------------------------------------------------------------------------

------------
SCF SETTINGS
------------
Hamiltonian:
 Density Functional     Method          .... DFT(GTOs)
 Exchange Functional    Exchange        .... WB97X-D3
 Correlation Functional Correlation     .... WB97X-D3
 Gradients option       PostSCFGGA      .... off
 Hybrid DFT is turned on
   Fraction HF Exchange ScalHFX         ....  0.195728
   Scaling of DF-GGA-X  ScalDFX         ....  0.000000
   Scaling of DF-GGA-C  ScalDFC         ....  1.000000
   Scaling of DF-LDA-C  ScalLDAC        ....  1.000000
   Perturbative correction              ....  0.000000
   Density functional embedding theory  .... OFF
 Long-range corrected/Screened/Range-Separated Hybrid DFT is turned on
   Amount of maximum screened exact exchange              ....  0.804272
   Range separation parameter mu (erf(mu*r12)/r12)        ....  0.250000


General Settings:
 Integral files         IntName         .... config_662
 Hartree-Fock type      HFTyp           .... RHF
 Total Charge           Charge          ....    0
 Multiplicity           Mult            ....    1
 Number of Electrons    NEL             ....  134
 Basis Dimension        Dim             ....  322
 Nuclear Repulsion      ENuc            ....   1287.5040062290 Eh

Convergence Acceleration:
 DIIS                   CNVDIIS         .... on
   Start iteration      DIISMaxIt       ....    12
   Startup error        DIISStart       ....  0.200000
   # of expansion vecs  DIISMaxEq       ....     5
   Bias factor          DIISBfac        ....   1.050
   Max. coefficient     DIISMaxC        ....  10.000
 Newton-Raphson         CNVNR           .... off
 SOSCF                  CNVSOSCF        .... on
   Start iteration      SOSCFMaxIt      ....   150
   Startup grad/error   SOSCFStart      ....  0.003300
 Level Shifting         CNVShift        .... on
   Level shift para.    LevelShift      ....    0.2500
   Turn off err/grad.   ShiftErr        ....    0.0010
 Zerner damping         CNVZerner       .... off
 Static damping         CNVDamp         .... on
   Fraction old density DampFac         ....    0.7000
   Max. Damping (<1)    DampMax         ....    0.9800
   Min. Damping (>=0)   DampMin         ....    0.0000
   Turn off err/grad.   DampErr         ....    0.1000
 Fernandez-Rico         CNVRico         .... off

SCF Procedure:
 Maximum # iterations   MaxIter         ....   125
 SCF integral mode      SCFMode         .... Direct
   Integral package                     .... LIBINT
 Reset frequency        DirectResetFreq ....    20
 Integral Threshold     Thresh          ....  1.000e-10 Eh
 Primitive CutOff       TCut            ....  1.000e-11 Eh

Convergence Tolerance:
 Convergence Check Mode ConvCheckMode   .... Total+1el-Energy
 Convergence forced     ConvForced      .... 0
 Energy Change          TolE            ....  1.000e-06 Eh
 1-El. energy change                    ....  1.000e-03 Eh
 Orbital Gradient       TolG            ....  5.000e-05
 Orbital Rotation angle TolX            ....  5.000e-05
 DIIS Error             TolErr          ....  1.000e-06


Diagonalization of the overlap matrix:
Smallest eigenvalue                        ... 5.807e-04
Time for diagonalization                   ...    0.017 sec
Threshold for overlap eigenvalues          ... 1.000e-08
Number of eigenvalues below threshold      ... 0
Time for construction of square roots      ...    0.026 sec
Total time needed                          ...    0.044 sec

-------------------
DFT GRID GENERATION
-------------------

General Integration Accuracy     IntAcc      ...  4.340
Radial Grid Type                 RadialGrid  ... Gauss-Chebyshev
Angular Grid (max. acc.)         AngularGrid ... Lebedev-110
Angular grid pruning method      GridPruning ... 3 (G Style)
Weight generation scheme         WeightScheme... Becke
Basis function cutoff            BFCut       ...    1.0000e-10
Integration weight cutoff        WCut        ...    1.0000e-14
Grids for H and He will be reduced by one unit

# of grid points (after initial pruning)     ...  41088 (   0.0 sec)
# of grid points (after weights+screening)   ...  36955 (   0.0 sec)
nearest neighbour list constructed           ...    0.0 sec
Grid point re-assignment to atoms done       ...    0.0 sec
Grid point division into batches done        ...    0.0 sec
Reduced shell lists constructed in    0.1 sec

Total number of grid points                  ...    36955
Total number of batches                      ...      596
Average number of points per batch           ...       62
Average number of grid points per atom       ...     1087
Average number of shells per batch           ...    74.51 (48.38%)
Average number of basis functions per batch  ...   147.79 (45.90%)
Average number of large shells per batch     ...    46.82 (62.84%)
Average number of large basis fcns per batch ...    97.64 (66.07%)
Maximum spatial batch extension              ...  16.44, 13.78, 17.44 au
Average spatial batch extension              ...   0.23,  0.21,  0.25 au

Time for grid setup =    0.198 sec

------------------------------
INITIAL GUESS: MODEL POTENTIAL
------------------------------
Loading Hartree-Fock densities                     ... done
Calculating cut-offs                               ... done
Setting up the integral package                    ... done
Initializing the effective Hamiltonian             ... done
Starting the Coulomb interaction                   ... done (   0.0 sec)
Reading the grid                                   ... done
Mapping shells                                     ... done
Starting the XC term evaluation                    ... done (   0.0 sec)
  promolecular density results
     # of electrons  =    134.013983602
     EX              =   -126.790049447
     EC              =     -4.627218431
     EX+EC           =   -131.417267877
Transforming the Hamiltonian                       ... done (   0.0 sec)
Diagonalizing the Hamiltonian                      ... done (   0.0 sec)
Back transforming the eigenvectors                 ... done (   0.0 sec)
Now organizing SCF variables                       ... done
                      ------------------
                      INITIAL GUESS DONE (   0.4 sec)
                      ------------------
--------------
SCF ITERATIONS
--------------
ITER       Energy         Delta-E        Max-DP      RMS-DP      [F,P]     Damp
               ***  Starting incremental Fock matrix formation  ***
  0  -1339.4059715252   0.000000000000 0.07033282  0.00168596  0.1714224 0.7000
  1  -1339.5997765018  -0.193804976665 0.04723846  0.00122000  0.1040529 0.7000
                               ***Turning on DIIS***
  2  -1339.6933238647  -0.093547362847 0.08458272  0.00227501  0.0542406 0.0000
  3  -1339.8351790234  -0.141855158739 0.04370589  0.00105295  0.0434665 0.0000
  4  -1339.8655305921  -0.030351568675 0.00854336  0.00020295  0.0083096 0.0000
                      *** Initiating the SOSCF procedure ***
                           *** Shutting down DIIS ***
                      *** Re-Reading the Fockian *** 
                      *** Removing any level shift *** 
ITER      Energy       Delta-E        Grad      Rot      Max-DP    RMS-DP
  5  -1339.86643662  -0.0009060274  0.001590  0.001590  0.003450  0.000097
               *** Restarting incremental Fock matrix formation ***
  6  -1339.86661956  -0.0001829407  0.001306  0.003575  0.002272  0.000063
  7  -1339.86667786  -0.0000582990  0.000871  0.004896  0.002454  0.000057
  8  -1339.86669304  -0.0000151807  0.000278  0.000680  0.000758  0.000018
  9  -1339.86669667  -0.0000036289  0.000125  0.000275  0.000269  0.000008
                 **** Energy Check signals convergence ****
              ***Rediagonalizing the Fockian in SOSCF/NRSCF***

               *****************************************************
               *                     SUCCESS                       *
               *           SCF CONVERGED AFTER  10 CYCLES          *
               *****************************************************

Setting up the final grid:

General Integration Accuracy     IntAcc      ...  4.670
Radial Grid Type                 RadialGrid  ... Gauss-Chebyshev
Angular Grid (max. acc.)         AngularGrid ... Lebedev-302
Angular grid pruning method      GridPruning ... 3 (G Style)
Weight generation scheme         WeightScheme... Becke
Basis function cutoff            BFCut       ...    1.0000e-10
Integration weight cutoff        WCut        ...    1.0000e-14
Grids for H and He will be reduced by one unit

# of grid points (after initial pruning)     ... 161752 (   0.0 sec)
# of grid points (after weights+screening)   ... 142658 (   0.2 sec)
nearest neighbour list constructed           ...    0.0 sec
Grid point re-assignment to atoms done       ...    0.0 sec
Grid point division into batches done        ...    0.5 sec
Reduced shell lists constructed in    0.6 sec

Total number of grid points                  ...   142658
Total number of batches                      ...     2246
Average number of points per batch           ...       63
Average number of grid points per atom       ...     4196
Average number of shells per batch           ...    67.91 (44.10%)
Average number of basis functions per batch  ...   134.63 (41.81%)
Average number of large shells per batch     ...    41.82 (61.59%)
Average number of large basis fcns per batch ...    86.64 (64.36%)
Maximum spatial batch extension              ...  14.61, 12.21, 15.57 au
Average spatial batch extension              ...   0.15,  0.14,  0.16 au

Final grid set up in    1.1 sec
Final integration                            ... done (   0.3 sec)
Change in XC energy                          ...     0.006645184
Integrated number of electrons               ...   133.999535525
Previous integrated no of electrons          ...   134.009038001

----------------
TOTAL SCF ENERGY
----------------

Total Energy       :        -1339.86005174 Eh          -36459.44557 eV

Components:
Nuclear Repulsion  :         1287.50400623 Eh           35034.76514 eV
Electronic Energy  :        -2627.36405796 Eh          -71494.21071 eV
One Electron Energy:        -4391.46027389 Eh         -119497.70920 eV
Two Electron Energy:         1764.09621593 Eh           48003.49849 eV

Virial components:
Potential Energy   :        -2671.91228016 Eh          -72706.42947 eV
Kinetic Energy     :         1332.05222842 Eh           36246.98390 eV
Virial Ratio       :            2.00586150


DFT components:
N(Alpha)           :       66.999767762410 electrons
N(Beta)            :       66.999767762410 electrons
N(Total)           :      133.999535524821 electrons
E(XC)              :      -94.364851351271 Eh       
DFET-embed. en.    :        0.000000000000 Eh       

---------------
SCF CONVERGENCE
---------------

  Last Energy change         ...   -2.5025e-07  Tolerance :   1.0000e-06
  Last MAX-Density change    ...    1.3384e-04  Tolerance :   1.0000e-05
  Last RMS-Density change    ...    3.2244e-06  Tolerance :   1.0000e-06
  Last Orbital Gradient      ...    6.3677e-05  Tolerance :   5.0000e-05
  Last Orbital Rotation      ...    1.9192e-04  Tolerance :   5.0000e-05

             **** THE GBW FILE WAS UPDATED (config_662.gbw) ****
             **** DENSITY FILE WAS UPDATED (config_662.scfp) ****
             **** ENERGY FILE WAS UPDATED (config_662.en.tmp) ****
             **** THE GBW FILE WAS UPDATED (config_662.gbw) ****
             **** DENSITY FILE WAS UPDATED (config_662.scfp) ****
----------------
ORBITAL ENERGIES
----------------

  NO   OCC          E(Eh)            E(eV) 
   0   2.0000     -88.965848     -2420.8838 
   1   2.0000     -88.962250     -2420.7859 
   2   2.0000     -10.326573      -281.0003 
   3   2.0000     -10.325110      -280.9605 
   4   2.0000     -10.317508      -280.7537 
   5   2.0000     -10.313041      -280.6321 
   6   2.0000     -10.300756      -280.2978 
   7   2.0000     -10.295578      -280.1569 
   8   2.0000     -10.290939      -280.0307 
   9   2.0000     -10.289288      -279.9858 
  10   2.0000     -10.288177      -279.9555 
  11   2.0000     -10.286856      -279.9196 
  12   2.0000     -10.285451      -279.8813 
  13   2.0000     -10.285445      -279.8812 
  14   2.0000     -10.281451      -279.7725 
  15   2.0000     -10.266255      -279.3590 
  16   2.0000      -8.080683      -219.8866 
  17   2.0000      -8.078374      -219.8237 
  18   2.0000      -6.039150      -164.3336 
  19   2.0000      -6.036686      -164.2666 
  20   2.0000      -6.035191      -164.2259 
  21   2.0000      -6.032628      -164.1562 
  22   2.0000      -6.031474      -164.1248 
  23   2.0000      -6.029327      -164.0663 
  24   2.0000      -1.011106       -27.5136 
  25   2.0000      -0.989232       -26.9184 
  26   2.0000      -0.917001       -24.9529 
  27   2.0000      -0.909882       -24.7592 
  28   2.0000      -0.863470       -23.4962 
  29   2.0000      -0.860959       -23.4279 
  30   2.0000      -0.849030       -23.1033 
  31   2.0000      -0.816043       -22.2057 
  32   2.0000      -0.784167       -21.3383 
  33   2.0000      -0.772361       -21.0170 
  34   2.0000      -0.706502       -19.2249 
  35   2.0000      -0.703832       -19.1522 
  36   2.0000      -0.691037       -18.8041 
  37   2.0000      -0.668881       -18.2012 
  38   2.0000      -0.646106       -17.5814 
  39   2.0000      -0.625529       -17.0215 
  40   2.0000      -0.602817       -16.4035 
  41   2.0000      -0.571147       -15.5417 
  42   2.0000      -0.568654       -15.4739 
  43   2.0000      -0.555487       -15.1156 
  44   2.0000      -0.537644       -14.6300 
  45   2.0000      -0.527022       -14.3410 
  46   2.0000      -0.523909       -14.2563 
  47   2.0000      -0.516532       -14.0556 
  48   2.0000      -0.508417       -13.8347 
  49   2.0000      -0.496998       -13.5240 
  50   2.0000      -0.490809       -13.3556 
  51   2.0000      -0.484855       -13.1936 
  52   2.0000      -0.468737       -12.7550 
  53   2.0000      -0.464876       -12.6499 
  54   2.0000      -0.461802       -12.5663 
  55   2.0000      -0.448154       -12.1949 
  56   2.0000      -0.443772       -12.0756 
  57   2.0000      -0.441080       -12.0024 
  58   2.0000      -0.437015       -11.8918 
  59   2.0000      -0.432117       -11.7585 
  60   2.0000      -0.429665       -11.6918 
  61   2.0000      -0.417934       -11.3726 
  62   2.0000      -0.417193       -11.3524 
  63   2.0000      -0.347148        -9.4464 
  64   2.0000      -0.332362        -9.0440 
  65   2.0000      -0.327229        -8.9044 
  66   2.0000      -0.289344        -7.8735 
  67   0.0000       0.033009         0.8982 
  68   0.0000       0.077112         2.0983 
  69   0.0000       0.106109         2.8874 
  70   0.0000       0.118629         3.2281 
  71   0.0000       0.124073         3.3762 
  72   0.0000       0.143607         3.9077 
  73   0.0000       0.154279         4.1982 
  74   0.0000       0.156991         4.2719 
  75   0.0000       0.166565         4.5325 
  76   0.0000       0.177170         4.8210 
  77   0.0000       0.180734         4.9180 
  78   0.0000       0.185841         5.0570 
  79   0.0000       0.199259         5.4221 
  80   0.0000       0.203160         5.5283 
  81   0.0000       0.210032         5.7153 
  82   0.0000       0.212381         5.7792 
  83   0.0000       0.218348         5.9415 
  84   0.0000       0.227417         6.1883 
  85   0.0000       0.235205         6.4003 
  86   0.0000       0.238219         6.4823 
  87   0.0000       0.245079         6.6689 
  88   0.0000       0.250344         6.8122 
  89   0.0000       0.256722         6.9858 
  90   0.0000       0.262900         7.1539 
  91   0.0000       0.275858         7.5065 
  92   0.0000       0.286526         7.7968 
  93   0.0000       0.304552         8.2873 
  94   0.0000       0.310821         8.4579 
  95   0.0000       0.314016         8.5448 
  96   0.0000       0.321571         8.7504 
  97   0.0000       0.327843         8.9211 
  98   0.0000       0.336242         9.1496 
  99   0.0000       0.362818         9.8728 
 100   0.0000       0.379000        10.3131 
 101   0.0000       0.393646        10.7116 
 102   0.0000       0.410901        11.1812 
 103   0.0000       0.425048        11.5661 
 104   0.0000       0.427603        11.6357 
 105   0.0000       0.434899        11.8342 
 106   0.0000       0.466740        12.7006 
 107   0.0000       0.484601        13.1867 
 108   0.0000       0.489166        13.3109 
 109   0.0000       0.503595        13.7035 
 110   0.0000       0.508599        13.8397 
 111   0.0000       0.510682        13.8964 
 112   0.0000       0.519660        14.1407 
 113   0.0000       0.524782        14.2801 
 114   0.0000       0.540126        14.6976 
 115   0.0000       0.548419        14.9232 
 116   0.0000       0.550150        14.9703 
 117   0.0000       0.553198        15.0533 
 118   0.0000       0.558064        15.1857 
 119   0.0000       0.576043        15.6749 
 120   0.0000       0.584873        15.9152 
 121   0.0000       0.590685        16.0733 
 122   0.0000       0.603643        16.4260 
 123   0.0000       0.608726        16.5643 
 124   0.0000       0.614095        16.7104 
 125   0.0000       0.623702        16.9718 
 126   0.0000       0.635509        17.2931 
 127   0.0000       0.638114        17.3640 
 128   0.0000       0.655832        17.8461 
 129   0.0000       0.660061        17.9612 
 130   0.0000       0.661204        17.9923 
 131   0.0000       0.669423        18.2159 
 132   0.0000       0.688396        18.7322 
 133   0.0000       0.694762        18.9054 
 134   0.0000       0.706285        19.2190 
 135   0.0000       0.712828        19.3970 
 136   0.0000       0.719187        19.5701 
 137   0.0000       0.726240        19.7620 
 138   0.0000       0.733009        19.9462 
 139   0.0000       0.735808        20.0223 
 140   0.0000       0.749321        20.3901 
 141   0.0000       0.756416        20.5831 
 142   0.0000       0.758553        20.6413 
 143   0.0000       0.760347        20.6901 
 144   0.0000       0.765851        20.8399 
 145   0.0000       0.777759        21.1639 
 146   0.0000       0.781644        21.2696 
 147   0.0000       0.787387        21.4259 
 148   0.0000       0.792234        21.5578 
 149   0.0000       0.794573        21.6214 
 150   0.0000       0.798639        21.7321 
 151   0.0000       0.798848        21.7378 
 152   0.0000       0.805825        21.9276 
 153   0.0000       0.807325        21.9684 
 154   0.0000       0.811990        22.0954 
 155   0.0000       0.815694        22.1962 
 156   0.0000       0.817239        22.2382 
 157   0.0000       0.820838        22.3361 
 158   0.0000       0.826158        22.4809 
 159   0.0000       0.833871        22.6908 
 160   0.0000       0.838443        22.8152 
 161   0.0000       0.845683        23.0122 
 162   0.0000       0.853632        23.2285 
 163   0.0000       0.856846        23.3160 
 164   0.0000       0.861649        23.4467 
 165   0.0000       0.879012        23.9191 
 166   0.0000       0.883049        24.0290 
 167   0.0000       0.906167        24.6581 
 168   0.0000       0.908413        24.7192 
 169   0.0000       0.911505        24.8033 
 170   0.0000       0.919190        25.0124 
 171   0.0000       0.926867        25.2213 
 172   0.0000       0.931286        25.3416 
 173   0.0000       0.950072        25.8528 
 174   0.0000       0.962674        26.1957 
 175   0.0000       0.981271        26.7017 
 176   0.0000       0.996099        27.1052 
 177   0.0000       1.025920        27.9167 
 178   0.0000       1.040155        28.3041 
 179   0.0000       1.044993        28.4357 
 180   0.0000       1.062991        28.9255 
 181   0.0000       1.080704        29.4075 
 182   0.0000       1.100917        29.9575 
 183   0.0000       1.108333        30.1593 
 184   0.0000       1.113810        30.3083 
 185   0.0000       1.137417        30.9507 
 186   0.0000       1.143635        31.1199 
 187   0.0000       1.150326        31.3020 
 188   0.0000       1.175520        31.9875 
 189   0.0000       1.187219        32.3059 
 190   0.0000       1.215364        33.0717 
 191   0.0000       1.231603        33.5136 
 192   0.0000       1.255594        34.1665 
 193   0.0000       1.283394        34.9229 
 194   0.0000       1.296420        35.2774 
 195   0.0000       1.311263        35.6813 
 196   0.0000       1.326543        36.0971 
 197   0.0000       1.333957        36.2988 
 198   0.0000       1.358237        36.9595 
 199   0.0000       1.384386        37.6711 
 200   0.0000       1.390812        37.8459 
 201   0.0000       1.396053        37.9885 
 202   0.0000       1.425077        38.7783 
 203   0.0000       1.434943        39.0468 
 204   0.0000       1.437835        39.1255 
 205   0.0000       1.465074        39.8667 
 206   0.0000       1.478506        40.2322 
 207   0.0000       1.507419        41.0190 
 208   0.0000       1.545343        42.0509 
 209   0.0000       1.552942        42.2577 
 210   0.0000       1.588237        43.2181 
 211   0.0000       1.614650        43.9369 
 212   0.0000       1.631228        44.3880 
 213   0.0000       1.631829        44.4043 
 214   0.0000       1.644747        44.7558 
 215   0.0000       1.663174        45.2573 
 216   0.0000       1.693699        46.0879 
 217   0.0000       1.703993        46.3680 
 218   0.0000       1.752981        47.7010 
 219   0.0000       1.785048        48.5736 
 220   0.0000       1.796404        48.8826 
 221   0.0000       1.805635        49.1338 
 222   0.0000       1.810718        49.2721 
 223   0.0000       1.820303        49.5330 
 224   0.0000       1.822251        49.5860 
 225   0.0000       1.830053        49.7983 
 226   0.0000       1.839588        50.0577 
 227   0.0000       1.852763        50.4162 
 228   0.0000       1.858770        50.5797 
 229   0.0000       1.869418        50.8694 
 230   0.0000       1.872962        50.9659 
 231   0.0000       1.876932        51.0739 
 232   0.0000       1.877964        51.1020 
 233   0.0000       1.892442        51.4960 
 234   0.0000       1.908220        51.9253 
 235   0.0000       1.917193        52.1695 
 236   0.0000       1.921055        52.2746 
 237   0.0000       1.927527        52.4507 
 238   0.0000       1.929563        52.5061 
 239   0.0000       1.960917        53.3593 
 240   0.0000       1.968939        53.5776 
 241   0.0000       1.972733        53.6808 
 242   0.0000       1.982138        53.9367 
 243   0.0000       1.990378        54.1609 
 244   0.0000       1.994771        54.2805 
 245   0.0000       2.003727        54.5242 
 246   0.0000       2.026404        55.1413 
 247   0.0000       2.029121        55.2152 
 248   0.0000       2.034052        55.3494 
 249   0.0000       2.042152        55.5698 
 250   0.0000       2.050371        55.7934 
 251   0.0000       2.080060        56.6013 
 252   0.0000       2.087572        56.8057 
 253   0.0000       2.091491        56.9124 
 254   0.0000       2.119263        57.6681 
 255   0.0000       2.125523        57.8384 
 256   0.0000       2.137034        58.1516 
 257   0.0000       2.142811        58.3088 
 258   0.0000       2.155711        58.6599 
 259   0.0000       2.162297        58.8391 
 260   0.0000       2.163009        58.8585 
 261   0.0000       2.198919        59.8356 
 262   0.0000       2.205369        60.0111 
 263   0.0000       2.220904        60.4339 
 264   0.0000       2.226542        60.5873 
 265   0.0000       2.252476        61.2930 
 266   0.0000       2.272489        61.8376 
 267   0.0000       2.288324        62.2685 
 268   0.0000       2.292032        62.3694 
 269   0.0000       2.306363        62.7593 
 270   0.0000       2.331042        63.4309 
 271   0.0000       2.364301        64.3359 
 272   0.0000       2.397537        65.2403 
 273   0.0000       2.404766        65.4370 
 274   0.0000       2.417172        65.7746 
 275   0.0000       2.427434        66.0538 
 276   0.0000       2.452188        66.7274 
 277   0.0000       2.472035        67.2675 
 278   0.0000       2.485770        67.6412 
 279   0.0000       2.504874        68.1611 
 280   0.0000       2.516345        68.4732 
 281   0.0000       2.523679        68.6728 
 282   0.0000       2.537006        69.0354 
 283   0.0000       2.539635        69.1070 
 284   0.0000       2.551553        69.4313 
 285   0.0000       2.566230        69.8307 
 286   0.0000       2.579041        70.1793 
 287   0.0000       2.589544        70.4651 
 288   0.0000       2.629192        71.5440 
 289   0.0000       2.639646        71.8284 
 290   0.0000       2.672895        72.7332 
 291   0.0000       2.689714        73.1908 
 292   0.0000       2.714113        73.8548 
 293   0.0000       2.727853        74.2287 
 294   0.0000       2.733723        74.3884 
 295   0.0000       2.754279        74.9477 
 296   0.0000       2.762858        75.1812 
 297   0.0000       2.796228        76.0892 
 298   0.0000       2.807104        76.3852 
 299   0.0000       2.840568        77.2958 
 300   0.0000       2.878780        78.3356 
 301   0.0000       2.918424        79.4144 
 302   0.0000       2.922126        79.5151 
 303   0.0000       2.939226        79.9804 
 304   0.0000       2.978587        81.0515 
 305   0.0000       2.998150        81.5838 
 306   0.0000       3.019141        82.1550 
 307   0.0000       3.026026        82.3423 
 308   0.0000       3.036572        82.6293 
 309   0.0000       3.042127        82.7805 
 310   0.0000       3.092628        84.1547 
 311   0.0000       3.099443        84.3401 
 312   0.0000       3.120633        84.9167 
 313   0.0000       3.136273        85.3423 
 314   0.0000       3.164684        86.1154 
 315   0.0000       3.183687        86.6325 
 316   0.0000       3.190385        86.8148 
 317   0.0000       3.228207        87.8440 
 318   0.0000       3.275914        89.1422 
 319   0.0000       3.318832        90.3100 
 320   0.0000       3.405195        92.6601 
 321   0.0000       3.476397        94.5976 

                    ********************************
                    * MULLIKEN POPULATION ANALYSIS *
                    ********************************

-----------------------
MULLIKEN ATOMIC CHARGES
-----------------------
   0 S :    0.102935
   1 C :   -0.132029
   2 C :   -0.098282
   3 C :   -0.004818
   4 C :   -0.116957
   5 H :    0.010531
   6 C :    0.135434
   7 H :    0.007874
   8 H :    0.010693
   9 C :   -0.102112
  10 H :    0.020879
  11 H :    0.032044
  12 C :   -0.039329
  13 H :    0.045579
  14 H :    0.024260
  15 H :    0.028130
  16 S :    0.107568
  17 C :   -0.093369
  18 C :   -0.021858
  19 C :   -0.022753
  20 C :   -0.147329
  21 H :   -0.005552
  22 C :    0.128040
  23 H :    0.013932
  24 H :    0.001212
  25 C :   -0.097726
  26 H :    0.023379
  27 H :    0.030724
  28 C :   -0.006048
  29 H :    0.013946
  30 H :    0.016979
  31 H :    0.020621
  32 H :    0.056969
  33 H :    0.056436
Sum of atomic charges:    0.0000000

--------------------------------
MULLIKEN REDUCED ORBITAL CHARGES
--------------------------------
  0 S s       :     5.836543  s :     5.836543
      pz      :     3.462673  p :     9.944412
      px      :     3.398923
      py      :     3.082817
      dz2     :     0.021038  d :     0.116110
      dxz     :     0.021913
      dyz     :     0.017118
      dx2y2   :     0.034119
      dxy     :     0.021922
  1 C s       :     3.186402  s :     3.186402
      pz      :     1.028492  p :     2.910735
      px      :     0.939005
      py      :     0.943237
      dz2     :     0.006031  d :     0.034893
      dxz     :     0.006482
      dyz     :     0.005088
      dx2y2   :     0.010717
      dxy     :     0.006576
  2 C s       :     3.086180  s :     3.086180
      pz      :     1.027362  p :     2.967874
      px      :     0.980429
      py      :     0.960083
      dz2     :     0.005432  d :     0.044227
      dxz     :     0.006327
      dyz     :     0.010019
      dx2y2   :     0.009920
      dxy     :     0.012529
  3 C s       :     3.207219  s :     3.207219
      pz      :     0.983448  p :     2.762379
      px      :     0.953767
      py      :     0.825163
      dz2     :     0.006718  d :     0.035221
      dxz     :     0.005345
      dyz     :     0.005660
      dx2y2   :     0.009895
      dxy     :     0.007603
  4 C s       :     3.062669  s :     3.062669
      pz      :     1.041833  p :     3.009650
      px      :     1.041173
      py      :     0.926643
      dz2     :     0.009283  d :     0.044638
      dxz     :     0.006823
      dyz     :     0.007754
      dx2y2   :     0.011968
      dxy     :     0.008809
  5 H s       :     0.965612  s :     0.965612
      pz      :     0.004718  p :     0.023857
      px      :     0.004815
      py      :     0.014325
  6 C s       :     2.904943  s :     2.904943
      pz      :     1.024583  p :     2.923822
      px      :     0.919662
      py      :     0.979577
      dz2     :     0.003136  d :     0.035802
      dxz     :     0.008981
      dyz     :     0.010476
      dx2y2   :     0.009192
      dxy     :     0.004018
  7 H s       :     0.967903  s :     0.967903
      pz      :     0.008047  p :     0.024223
      px      :     0.004569
      py      :     0.011607
  8 H s       :     0.964003  s :     0.964003
      pz      :     0.008238  p :     0.025304
      px      :     0.004974
      py      :     0.012092
  9 C s       :     3.074867  s :     3.074867
      pz      :     1.015423  p :     2.992034
      px      :     0.944124
      py      :     1.032487
      dz2     :     0.002726  d :     0.035210
      dxz     :     0.008733
      dyz     :     0.011021
      dx2y2   :     0.008512
      dxy     :     0.004218
 10 H s       :     0.955505  s :     0.955505
      pz      :     0.007494  p :     0.023616
      px      :     0.004391
      py      :     0.011731
 11 H s       :     0.946280  s :     0.946280
      pz      :     0.008127  p :     0.021676
      px      :     0.003327
      py      :     0.010223
 12 C s       :     3.015688  s :     3.015688
      pz      :     0.985868  p :     2.996763
      px      :     0.977214
      py      :     1.033681
      dz2     :     0.001349  d :     0.026878
      dxz     :     0.007445
      dyz     :     0.009538
      dx2y2   :     0.006121
      dxy     :     0.002426
 13 H s       :     0.931477  s :     0.931477
      pz      :     0.009141  p :     0.022944
      px      :     0.009108
      py      :     0.004695
 14 H s       :     0.950937  s :     0.950937
      pz      :     0.009022  p :     0.024802
      px      :     0.004454
      py      :     0.011326
 15 H s       :     0.948457  s :     0.948457
      pz      :     0.007710  p :     0.023413
      px      :     0.004648
      py      :     0.011055
 16 S s       :     5.847133  s :     5.847133
      pz      :     3.493043  p :     9.936013
      px      :     3.076451
      py      :     3.366520
      dz2     :     0.018709  d :     0.109286
      dxz     :     0.015009
      dyz     :     0.020009
      dx2y2   :     0.033347
      dxy     :     0.022213
 17 C s       :     3.161803  s :     3.161803
      pz      :     1.017194  p :     2.898757
      px      :     0.967567
      py      :     0.913996
      dz2     :     0.004233  d :     0.032809
      dxz     :     0.007148
      dyz     :     0.005802
      dx2y2   :     0.009804
      dxy     :     0.005821
 18 C s       :     3.173692  s :     3.173692
      pz      :     0.963291  p :     2.813116
      px      :     0.927434
      py      :     0.922391
      dz2     :     0.004027  d :     0.035049
      dxz     :     0.007689
      dyz     :     0.005258
      dx2y2   :     0.008540
      dxy     :     0.009535
 19 C s       :     3.047873  s :     3.047873
      pz      :     0.997707  p :     2.928456
      px      :     0.951319
      py      :     0.979430
      dz2     :     0.007927  d :     0.046424
      dxz     :     0.010202
      dyz     :     0.005257
      dx2y2   :     0.011011
      dxy     :     0.012026
 20 C s       :     3.055168  s :     3.055168
      pz      :     1.052262  p :     3.047464
      px      :     0.893446
      py      :     1.101756
      dz2     :     0.009436  d :     0.044697
      dxz     :     0.008346
      dyz     :     0.007032
      dx2y2   :     0.011195
      dxy     :     0.008688
 21 H s       :     0.979498  s :     0.979498
      pz      :     0.010648  p :     0.026055
      px      :     0.003832
      py      :     0.011575
 22 C s       :     2.872204  s :     2.872204
      pz      :     1.012164  p :     2.962984
      px      :     0.989778
      py      :     0.961042
      dz2     :     0.010971  d :     0.036772
      dxz     :     0.004345
      dyz     :     0.004120
      dx2y2   :     0.006828
      dxy     :     0.010509
 23 H s       :     0.961286  s :     0.961286
      pz      :     0.014567  p :     0.024783
      px      :     0.004924
      py      :     0.005291
 24 H s       :     0.973015  s :     0.973015
      pz      :     0.006364  p :     0.025773
      px      :     0.009570
      py      :     0.009839
 25 C s       :     3.054019  s :     3.054019
      pz      :     1.028134  p :     3.006751
      px      :     1.013069
      py      :     0.965548
      dz2     :     0.011693  d :     0.036956
      dxz     :     0.003635
      dyz     :     0.004138
      dx2y2   :     0.007111
      dxy     :     0.010379
 26 H s       :     0.952813  s :     0.952813
      pz      :     0.013873  p :     0.023807
      px      :     0.005927
      py      :     0.004008
 27 H s       :     0.945492  s :     0.945492
      pz      :     0.005219  p :     0.023784
      px      :     0.008691
      py      :     0.009875
 28 C s       :     2.954637  s :     2.954637
      pz      :     1.024464  p :     3.020094
      px      :     0.985058
      py      :     1.010572
      dz2     :     0.009237  d :     0.031318
      dxz     :     0.004039
      dyz     :     0.004301
      dx2y2   :     0.005638
      dxy     :     0.008103
 29 H s       :     0.960524  s :     0.960524
      pz      :     0.014921  p :     0.025530
      px      :     0.005169
      py      :     0.005441
 30 H s       :     0.958403  s :     0.958403
      pz      :     0.006072  p :     0.024619
      px      :     0.009174
      py      :     0.009373
 31 H s       :     0.953650  s :     0.953650
      pz      :     0.007347  p :     0.025730
      px      :     0.005394
      py      :     0.012988
 32 H s       :     0.919896  s :     0.919896
      pz      :     0.005020  p :     0.023135
      px      :     0.003879
      py      :     0.014235
 33 H s       :     0.919217  s :     0.919217
      pz      :     0.008252  p :     0.024347
      px      :     0.011878
      py      :     0.004217


                     *******************************
                     * LOEWDIN POPULATION ANALYSIS *
                     *******************************

----------------------
LOEWDIN ATOMIC CHARGES
----------------------
   0 S :    0.425456
   1 C :   -0.216589
   2 C :   -0.061034
   3 C :   -0.069874
   4 C :   -0.192050
   5 H :    0.033433
   6 C :   -0.019981
   7 H :    0.024264
   8 H :    0.023860
   9 C :   -0.033185
  10 H :    0.018297
  11 H :    0.022916
  12 C :   -0.063631
  13 H :    0.031141
  14 H :    0.017899
  15 H :    0.024806
  16 S :    0.410664
  17 C :   -0.181880
  18 C :   -0.051895
  19 C :   -0.062278
  20 C :   -0.205070
  21 H :    0.018631
  22 C :   -0.020484
  23 H :    0.032231
  24 H :    0.024454
  25 C :   -0.032949
  26 H :    0.022971
  27 H :    0.022431
  28 C :   -0.055556
  29 H :    0.016084
  30 H :    0.020600
  31 H :    0.018752
  32 H :    0.030450
  33 H :    0.027117

-------------------------------
LOEWDIN REDUCED ORBITAL CHARGES
-------------------------------
  0 S s       :     5.482176  s :     5.482176
      pz      :     3.444153  p :     9.948121
      px      :     3.400793
      py      :     3.103175
      dz2     :     0.025377  d :     0.144247
      dxz     :     0.027633
      dyz     :     0.020479
      dx2y2   :     0.044676
      dxy     :     0.026082
  1 C s       :     2.930079  s :     2.930079
      pz      :     1.088392  p :     3.202851
      px      :     1.045114
      py      :     1.069345
      dz2     :     0.013047  d :     0.083659
      dxz     :     0.014881
      dyz     :     0.010858
      dx2y2   :     0.026986
      dxy     :     0.017886
  2 C s       :     2.859709  s :     2.859709
      pz      :     1.002944  p :     3.091865
      px      :     1.026664
      py      :     1.062257
      dz2     :     0.011613  d :     0.109460
      dxz     :     0.013860
      dyz     :     0.023682
      dx2y2   :     0.025970
      dxy     :     0.034335
  3 C s       :     2.861317  s :     2.861317
      pz      :     1.032700  p :     3.114921
      px      :     1.040826
      py      :     1.041395
      dz2     :     0.014891  d :     0.093635
      dxz     :     0.015214
      dyz     :     0.014448
      dx2y2   :     0.026580
      dxy     :     0.022502
  4 C s       :     2.912573  s :     2.912573
      pz      :     1.077906  p :     3.174118
      px      :     1.094960
      py      :     1.001252
      dz2     :     0.019245  d :     0.105359
      dxz     :     0.017562
      dyz     :     0.017963
      dx2y2   :     0.028670
      dxy     :     0.021920
  5 H s       :     0.897972  s :     0.897972
      pz      :     0.014117  p :     0.068595
      px      :     0.014544
      py      :     0.039934
  6 C s       :     2.808057  s :     2.808057
      pz      :     1.048684  p :     3.120448
      px      :     1.002125
      py      :     1.069638
      dz2     :     0.006027  d :     0.091476
      dxz     :     0.024879
      dyz     :     0.026506
      dx2y2   :     0.025338
      dxy     :     0.008726
  7 H s       :     0.902864  s :     0.902864
      pz      :     0.024747  p :     0.072872
      px      :     0.015885
      py      :     0.032241
  8 H s       :     0.900414  s :     0.900414
      pz      :     0.025030  p :     0.075726
      px      :     0.016585
      py      :     0.034110
  9 C s       :     2.843035  s :     2.843035
      pz      :     1.038292  p :     3.106941
      px      :     0.993804
      py      :     1.074845
      dz2     :     0.005093  d :     0.083209
      dxz     :     0.022281
      dyz     :     0.026145
      dx2y2   :     0.021518
      dxy     :     0.008171
 10 H s       :     0.908475  s :     0.908475
      pz      :     0.023685  p :     0.073229
      px      :     0.016066
      py      :     0.033477
 11 H s       :     0.912770  s :     0.912770
      pz      :     0.024699  p :     0.064315
      px      :     0.012288
      py      :     0.027327
 12 C s       :     2.840913  s :     2.840913
      pz      :     1.045997  p :     3.154981
      px      :     1.028277
      py      :     1.080707
      dz2     :     0.002930  d :     0.067737
      dxz     :     0.020107
      dyz     :     0.023583
      dx2y2   :     0.016151
      dxy     :     0.004965
 13 H s       :     0.904401  s :     0.904401
      pz      :     0.025107  p :     0.064458
      px      :     0.026976
      py      :     0.012375
 14 H s       :     0.911361  s :     0.911361
      pz      :     0.025846  p :     0.070740
      px      :     0.014513
      py      :     0.030381
 15 H s       :     0.909312  s :     0.909312
      pz      :     0.021768  p :     0.065883
      px      :     0.014182
      py      :     0.029933
 16 S s       :     5.503572  s :     5.503572
      pz      :     3.466025  p :     9.950119
      px      :     3.116603
      py      :     3.367491
      dz2     :     0.022848  d :     0.135646
      dxz     :     0.017904
      dyz     :     0.024440
      dx2y2   :     0.043806
      dxy     :     0.026648
 17 C s       :     2.944576  s :     2.944576
      pz      :     1.067003  p :     3.161869
      px      :     1.087472
      py      :     1.007395
      dz2     :     0.009287  d :     0.075434
      dxz     :     0.015663
      dyz     :     0.012321
      dx2y2   :     0.023587
      dxy     :     0.014575
 18 C s       :     2.860258  s :     2.860258
      pz      :     1.017446  p :     3.099849
      px      :     1.044590
      py      :     1.037812
      dz2     :     0.009795  d :     0.091788
      dxz     :     0.018993
      dyz     :     0.012803
      dx2y2   :     0.022502
      dxy     :     0.027695
 19 C s       :     2.839285  s :     2.839285
      pz      :     1.016030  p :     3.104226
      px      :     1.054675
      py      :     1.033522
      dz2     :     0.017566  d :     0.118767
      dxz     :     0.024761
      dyz     :     0.014837
      dx2y2   :     0.028475
      dxy     :     0.033127
 20 C s       :     2.904960  s :     2.904960
      pz      :     1.086695  p :     3.192473
      px      :     1.012054
      py      :     1.093724
      dz2     :     0.019723  d :     0.107638
      dxz     :     0.019823
      dyz     :     0.018254
      dx2y2   :     0.027147
      dxy     :     0.022690
 21 H s       :     0.903329  s :     0.903329
      pz      :     0.031223  p :     0.078040
      px      :     0.013970
      py      :     0.032848
 22 C s       :     2.798825  s :     2.798825
      pz      :     1.061833  p :     3.127523
      px      :     1.035698
      py      :     1.029992
      dz2     :     0.027629  d :     0.094136
      dxz     :     0.010232
      dyz     :     0.011130
      dx2y2   :     0.018810
      dxy     :     0.026334
 23 H s       :     0.896219  s :     0.896219
      pz      :     0.040910  p :     0.071550
      px      :     0.015181
      py      :     0.015460
 24 H s       :     0.897919  s :     0.897919
      pz      :     0.018555  p :     0.077627
      px      :     0.029072
      py      :     0.030000
 25 C s       :     2.830996  s :     2.830996
      pz      :     1.058630  p :     3.114739
      px      :     1.041713
      py      :     1.014396
      dz2     :     0.027605  d :     0.087215
      dxz     :     0.007507
      dyz     :     0.010199
      dx2y2   :     0.016942
      dxy     :     0.024962
 26 H s       :     0.907044  s :     0.907044
      pz      :     0.039825  p :     0.069985
      px      :     0.017398
      py      :     0.012762
 27 H s       :     0.905551  s :     0.905551
      pz      :     0.015353  p :     0.072019
      px      :     0.025679
      py      :     0.030987
 28 C s       :     2.807238  s :     2.807238
      pz      :     1.068287  p :     3.168805
      px      :     1.030186
      py      :     1.070332
      dz2     :     0.024250  d :     0.079513
      dxz     :     0.008852
      dyz     :     0.011020
      dx2y2   :     0.014456
      dxy     :     0.020934
 29 H s       :     0.912128  s :     0.912128
      pz      :     0.041017  p :     0.071787
      px      :     0.016126
      py      :     0.014644
 30 H s       :     0.910713  s :     0.910713
      pz      :     0.016210  p :     0.068687
      px      :     0.027225
      py      :     0.025253
 31 H s       :     0.906965  s :     0.906965
      pz      :     0.020843  p :     0.074283
      px      :     0.017911
      py      :     0.035528
 32 H s       :     0.897469  s :     0.897469
      pz      :     0.016791  p :     0.072081
      px      :     0.014360
      py      :     0.040930
 33 H s       :     0.895663  s :     0.895663
      pz      :     0.027236  p :     0.077220
      px      :     0.035034
      py      :     0.014950


                      *****************************
                      * MAYER POPULATION ANALYSIS *
                      *****************************

  NA   - Mulliken gross atomic population
  ZA   - Total nuclear charge
  QA   - Mulliken gross atomic charge
  VA   - Mayer's total valence
  BVA  - Mayer's bonded valence
  FA   - Mayer's free valence

  ATOM       NA         ZA         QA         VA         BVA        FA
  0 S     15.8971    16.0000     0.1029     2.5299     2.5299     0.0000
  1 C      6.1320     6.0000    -0.1320     3.8300     3.8300     0.0000
  2 C      6.0983     6.0000    -0.0983     4.0182     4.0182     0.0000
  3 C      6.0048     6.0000    -0.0048     3.9269     3.9269     0.0000
  4 C      6.1170     6.0000    -0.1170     3.9007     3.9007     0.0000
  5 H      0.9895     1.0000     0.0105     1.0073     1.0073     0.0000
  6 C      5.8646     6.0000     0.1354     3.9578     3.9578    -0.0000
  7 H      0.9921     1.0000     0.0079     0.9928     0.9928    -0.0000
  8 H      0.9893     1.0000     0.0107     0.9901     0.9901    -0.0000
  9 C      6.1021     6.0000    -0.1021     4.0802     4.0802     0.0000
 10 H      0.9791     1.0000     0.0209     0.9768     0.9768    -0.0000
 11 H      0.9680     1.0000     0.0320     0.9848     0.9848     0.0000
 12 C      6.0393     6.0000    -0.0393     3.9964     3.9964    -0.0000
 13 H      0.9544     1.0000     0.0456     0.9854     0.9854    -0.0000
 14 H      0.9757     1.0000     0.0243     0.9914     0.9914    -0.0000
 15 H      0.9719     1.0000     0.0281     0.9883     0.9883     0.0000
 16 S     15.8924    16.0000     0.1076     2.4884     2.4884    -0.0000
 17 C      6.0934     6.0000    -0.0934     3.8371     3.8371     0.0000
 18 C      6.0219     6.0000    -0.0219     3.9474     3.9474     0.0000
 19 C      6.0228     6.0000    -0.0228     4.0636     4.0636     0.0000
 20 C      6.1473     6.0000    -0.1473     3.8763     3.8763    -0.0000
 21 H      1.0056     1.0000    -0.0056     0.9985     0.9985     0.0000
 22 C      5.8720     6.0000     0.1280     3.9452     3.9452     0.0000
 23 H      0.9861     1.0000     0.0139     0.9913     0.9913     0.0000
 24 H      0.9988     1.0000     0.0012     1.0043     1.0043     0.0000
 25 C      6.0977     6.0000    -0.0977     4.0923     4.0923     0.0000
 26 H      0.9766     1.0000     0.0234     0.9817     0.9817    -0.0000
 27 H      0.9693     1.0000     0.0307     0.9872     0.9872     0.0000
 28 C      6.0060     6.0000    -0.0060     4.0080     4.0080    -0.0000
 29 H      0.9861     1.0000     0.0139     0.9942     0.9942     0.0000
 30 H      0.9830     1.0000     0.0170     0.9913     0.9913     0.0000
 31 H      0.9794     1.0000     0.0206     0.9881     0.9881    -0.0000
 32 H      0.9430     1.0000     0.0570     0.9994     0.9994    -0.0000
 33 H      0.9436     1.0000     0.0564     0.9967     0.9967     0.0000

  Mayer bond orders larger than 0.100000
B(  0-S ,  1-C ) :   1.1593 B(  0-S ,  4-C ) :   1.1746 B(  1-C ,  2-C ) :   1.5826 
B(  1-C , 32-H ) :   0.9711 B(  2-C ,  3-C ) :   1.2420 B(  2-C ,  6-C ) :   1.0376 
B(  3-C ,  4-C ) :   1.5893 B(  3-C ,  5-H ) :   0.9991 B(  4-C , 20-C ) :   0.9785 
B(  6-C ,  7-H ) :   0.9373 B(  6-C ,  8-H ) :   0.9336 B(  6-C ,  9-C ) :   1.0619 
B(  9-C , 10-H ) :   0.9559 B(  9-C , 11-H ) :   0.9599 B(  9-C , 12-C ) :   1.0766 
B( 12-C , 13-H ) :   0.9762 B( 12-C , 14-H ) :   0.9778 B( 12-C , 15-H ) :   0.9750 
B( 16-S , 17-C ) :   1.1429 B( 16-S , 20-C ) :   1.1591 B( 17-C , 18-C ) :   1.6025 
B( 17-C , 20-C ) :   0.1014 B( 17-C , 33-H ) :   0.9712 B( 18-C , 19-C ) :   1.2380 
B( 18-C , 21-H ) :   0.9933 B( 19-C , 20-C ) :   1.5879 B( 19-C , 22-C ) :   1.0777 
B( 22-C , 23-H ) :   0.9204 B( 22-C , 24-H ) :   0.9193 B( 22-C , 25-C ) :   1.0475 
B( 25-C , 26-H ) :   0.9571 B( 25-C , 27-H ) :   0.9604 B( 25-C , 28-C ) :   1.0880 
B( 28-C , 29-H ) :   0.9734 B( 28-C , 30-H ) :   0.9741 B( 28-C , 31-H ) :   0.9723 


-------
TIMINGS
-------

Total SCF time: 0 days 0 hours 0 min 29 sec 

Total time                  ....      29.999 sec
Sum of individual times     ....      29.024 sec  ( 96.8%)

Fock matrix formation       ....      26.984 sec  ( 90.0%)
  XC integration            ....       1.732 sec  (  6.4% of F)
    Basis function eval.    ....       0.220 sec  ( 12.7% of XC)
    Density eval.           ....       0.168 sec  (  9.7% of XC)
    XC-Functional eval.     ....       0.185 sec  ( 10.7% of XC)
    XC-Potential eval.      ....       0.187 sec  ( 10.8% of XC)
Diagonalization             ....       0.178 sec  (  0.6%)
Density matrix formation    ....       0.023 sec  (  0.1%)
Population analysis         ....       0.069 sec  (  0.2%)
Initial guess               ....       0.223 sec  (  0.7%)
Orbital Transformation      ....       0.000 sec  (  0.0%)
Orbital Orthonormalization  ....       0.000 sec  (  0.0%)
DIIS solution               ....       0.144 sec  (  0.5%)
SOSCF solution              ....       0.110 sec  (  0.4%)
Grid generation             ....       1.293 sec  (  4.3%)


-------------------------------------------------------------------------------
                          DFT DISPERSION CORRECTION                            
                                                                               
                              DFTD3 V3.1  Rev 1                                
                              USING zero damping                               
-------------------------------------------------------------------------------
The omegaB97X-D3 functional is recognized. Fit by Chai et al.
Active option DFTDOPT                   ...         3   

molecular C6(AA) [au] = 14146.574035 


            DFT-D V3
 parameters
 s6 scaling factor         :     1.0000 
 rs6 scaling factor        :     1.2810 
 s8 scaling factor         :     1.0000 
 rs8 scaling factor        :     1.0940 
 Damping factor alpha6     :    14.0000 
 Damping factor alpha8     :    16.0000 
 ad hoc parameters k1-k3   :    16.0000     1.3333    -4.0000 

 Edisp/kcal,au: -8.900414466955  -0.014183711777 
 E6   /kcal   :  -4.104822105 
 E8   /kcal   :  -4.795592362 
 % E8         :  53.880551066 

-------------------------   ----------------
Dispersion correction           -0.014183712
-------------------------   ----------------


-------------------------   --------------------
FINAL SINGLE POINT ENERGY     -1339.874235446864
-------------------------   --------------------


                            ***************************************
                            *     ORCA property calculations      *
                            ***************************************

                                    ---------------------
                                    Active property flags
                                    ---------------------
   (+) Dipole Moment


------------------------------------------------------------------------------
                       ORCA ELECTRIC PROPERTIES CALCULATION
------------------------------------------------------------------------------

Dipole Moment Calculation                       ... on
Quadrupole Moment Calculation                   ... off
Polarizability Calculation                      ... off
GBWName                                         ... config_662.gbw
Electron density file                           ... config_662.scfp
The origin for moment calculation is the CENTER OF MASS  = (-22.402263, 138.707433 90.921061)

-------------
DIPOLE MOMENT
-------------
                                X             Y             Z
Electronic contribution:     30.32996      13.99598      -3.19861
Nuclear contribution   :    -30.99516     -14.32287       3.05953
                        -----------------------------------------
Total Dipole Moment    :     -0.66520      -0.32689      -0.13908
                        -----------------------------------------
Magnitude (a.u.)       :      0.75412
Magnitude (Debye)      :      1.91681



--------------------
Rotational spectrum 
--------------------
 
Rotational constants in cm-1:     0.017352     0.009678     0.006466 
Rotational constants in MHz :   520.208488   290.140988   193.839208 

 Dipole components along the rotational axes: 
x,y,z [a.u.] :     0.341362    -0.650985    -0.168462 
x,y,z [Debye]:     0.867674    -1.654673    -0.428197 

 

Timings for individual modules:

Sum of individual times         ...       31.267 sec (=   0.521 min)
GTO integral calculation        ...        0.832 sec (=   0.014 min)   2.7 %
SCF iterations                  ...       30.436 sec (=   0.507 min)  97.3 %
                             ****ORCA TERMINATED NORMALLY****
TOTAL RUN TIME: 0 days 0 hours 0 minutes 31 seconds 922 msec
