
                                 *****************
                                 * O   R   C   A *
                                 *****************

           --- An Ab Initio, DFT and Semiempirical electronic structure package ---

                  #######################################################
                  #                        -***-                        #
                  #          Department of theory and spectroscopy      #
                  #               Directorship: Frank Neese             #
                  #        Max Planck Institute fuer Kohlenforschung    #
                  #                Kaiser Wilhelm Platz 1               #
                  #                 D-45470 Muelheim/Ruhr               #
                  #                      Germany                        #
                  #                                                     #
                  #                  All rights reserved                #
                  #                        -***-                        #
                  #######################################################


                         Program Version 4.2.1 -  RELEASE  -


 With contributions from (in alphabetic order):
   Daniel Aravena         : Magnetic Suceptibility
   Michael Atanasov       : Ab Initio Ligand Field Theory (pilot matlab implementation)
   Alexander A. Auer      : GIAO ZORA, VPT2
   Ute Becker             : Parallelization
   Giovanni Bistoni       : ED, misc. LED, open-shell LED, HFLD
   Martin Brehm           : Molecular dynamics
   Dmytro Bykov           : SCF Hessian
   Vijay G. Chilkuri      : MRCI spin determinant printing, contributions to CSF-ICE
   Dipayan Datta          : RHF DLPNO-CCSD density
   Achintya Kumar Dutta   : EOM-CC, STEOM-CC
   Dmitry Ganyushin       : Spin-Orbit,Spin-Spin,Magnetic field MRCI
   Miquel Garcia          : C-PCM Hessian, Gaussian charge scheme
   Yang Guo               : DLPNO-NEVPT2, CIM, IAO-localization
   Andreas Hansen         : Spin unrestricted coupled pair/coupled cluster methods
   Benjamin Helmich-Paris : CASSCF linear response (MC-RPA)
   Lee Huntington         : MR-EOM, pCC
   Robert Izsak           : Overlap fitted RIJCOSX, COSX-SCS-MP3, EOM
   Christian Kollmar      : KDIIS, OOCD, Brueckner-CCSD(T), CCSD density
   Simone Kossmann        : Meta GGA functionals, TD-DFT gradient, OOMP2, MP2 Hessian
   Martin Krupicka        : AUTO-CI
   Lucas Lang             : DCDCAS
   Dagmar Lenk            : GEPOL surface, SMD
   Dimitrios Liakos       : Extrapolation schemes; Compound Job, initial MDCI parallelization
   Dimitrios Manganas     : Further ROCIS development; embedding schemes
   Dimitrios Pantazis     : SARC Basis sets
   Taras Petrenko         : DFT Hessian,TD-DFT gradient, ASA, ECA, R-Raman, ABS, FL, XAS/XES, NRVS
   Peter Pinski           : DLPNO-MP2, DLPNO-MP2 Gradient
   Christoph Reimann      : Effective Core Potentials
   Marius Retegan         : Local ZFS, SOC
   Christoph Riplinger    : Optimizer, TS searches, QM/MM, DLPNO-CCSD(T), (RO)-DLPNO pert. Triples
   Tobias Risthaus        : Range-separated hybrids, TD-DFT gradient, RPA, STAB
   Michael Roemelt        : Original ROCIS implementation
   Masaaki Saitow         : Open-shell DLPNO-CCSD energy and density
   Barbara Sandhoefer     : DKH picture change effects
   Avijit Sen             : IP-ROCIS
   Kantharuban Sivalingam : CASSCF convergence, NEVPT2, FIC-MRCI
   Bernardo de Souza      : ESD, SOC TD-DFT
   Georgi Stoychev        : AutoAux, RI-MP2 NMR
   Willem Van den Heuvel  : Paramagnetic NMR
   Boris Wezisla          : Elementary symmetry handling
   Frank Wennmohs         : Technical directorship


 We gratefully acknowledge several colleagues who have allowed us to
 interface, adapt or use parts of their codes:
   Stefan Grimme, W. Hujo, H. Kruse,             : VdW corrections, initial TS optimization,
                  C. Bannwarth                     DFT functionals, gCP, sTDA/sTD-DF
   Ed Valeev, F. Pavosevic, A. Kumar             : LibInt (2-el integral package), F12 methods
   Garnet Chan, S. Sharma, J. Yang, R. Olivares  : DMRG
   Ulf Ekstrom                                   : XCFun DFT Library
   Mihaly Kallay                                 : mrcc  (arbitrary order and MRCC methods)
   Andreas Klamt, Michael Diedenhofen            : otool_cosmo (COSMO solvation model)
   Jiri Pittner, Ondrej Demel                    : Mk-CCSD
   Frank Weinhold                                : gennbo (NPA and NBO analysis)
   Christopher J. Cramer and Donald G. Truhlar   : smd solvation model
   Lars Goerigk                                  : TD-DFT with DH, B97 family of functionals
   V. Asgeirsson, H. Jonsson                     : NEB implementation
   FAccTs GmbH                                   : IRC, NEB, NEB-TS, Multilevel, MM, QM/MM, CI optimization
   S Lehtola, MJT Oliveira, MAL Marques          : LibXC Library


 Your calculation uses the libint2 library for the computation of 2-el integrals
 For citations please refer to: http://libint.valeyev.net

 Your ORCA version has been built with support for libXC version: 4.2.3
 For citations please refer to: https://tddft.org/programs/libxc/

 This ORCA versions uses:
   CBLAS   interface :  Fast vector & matrix operations
   LAPACKE interface :  Fast linear algebra routines
   SCALAPACK package :  Parallel linear algebra routines


Your calculation utilizes the atom-pairwise dispersion correction
with the zero-damping scheme (D30)
Cite in your paper:
S.Grimme, J.Antony, S.Ehrlich and H.Krieg, J.Chem.Phys., 132, (2010), 154104 
   

XCFun DFT library Copyright 2009-2010 Ulf Ekstrom and contributors.
See http://admol.org/xcfun for more information. This is free soft-
ware; see the source code for copying conditions. There is ABSOLUTELY
NO WARRANTY; not even for MERCHANTABILITY or FITNESS FOR A PARTICULAR
PURPOSE. For details see the documentation. Scientific users of this 
library should cite U. Ekstrom, L. Visscher, R. Bast, A. J. Thorvald-
sen and K. Ruud; J.Chem.Theor.Comp. 2010, DOI: 10.1021/ct100117s
XCFun Version 0.99 
----- Orbital basis set information -----
Your calculation utilizes the basis: def2-SVP
   F. Weigend and R. Ahlrichs, Phys. Chem. Chem. Phys. 7, 3297 (2005).

================================================================================
                                        WARNINGS
                       Please study these warnings very carefully!
================================================================================


INFO   : the flag for use of LIBINT has been found!

================================================================================
                                       INPUT FILE
================================================================================
NAME = config_565.inp
|  1> ! wB97X-D3 SP def2-SVP
|  2> %pal
|  3> nprocs 16
|  4> end
|  5> 
|  6> * xyz 0 1
|  7> S 	 -7.90079 	 59.8176 	 47.8696 	 
|  8> C 	 -8.98726 	 61.1432 	 48.1111 	 
|  9> C 	 -8.51978 	 62.0581 	 49.0854 	 
| 10> C 	 -7.31578 	 61.618 	 49.6925 	 
| 11> C 	 -6.78089 	 60.4874 	 49.0412 	 
| 12> H 	 -6.83946 	 62.0853 	 50.5082 	 
| 13> C 	 -9.19113 	 63.3886 	 49.4528 	 
| 14> H 	 -9.77099 	 63.1895 	 50.3897 	 
| 15> H 	 -9.88867 	 63.577 	 48.6408 	 
| 16> C 	 -8.30554 	 64.6331 	 49.4484 	 
| 17> H 	 -7.44187 	 64.3998 	 49.9861 	 
| 18> H 	 -7.97551 	 64.9246 	 48.4865 	 
| 19> C 	 -9.0532 	 65.7197 	 50.1882 	 
| 20> H 	 -10.1041 	 65.9277 	 49.832 	 
| 21> H 	 -9.11568 	 65.4193 	 51.2345 	 
| 22> H 	 -8.40146 	 66.6402 	 50.117 	 
| 23> S 	 -5.41012 	 58.0927 	 49.1851 	 
| 24> C 	 -3.67324 	 58.0954 	 49.5619 	 
| 25> C 	 -3.30636 	 59.3649 	 49.8634 	 
| 26> C 	 -4.3198 	 60.389 	 49.947 	 
| 27> C 	 -5.5323 	 59.8311 	 49.4761 	 
| 28> H 	 -2.27991 	 59.5314 	 50.2229 	 
| 29> C 	 -3.99752 	 61.8268 	 50.4734 	 
| 30> H 	 -3.15452 	 61.745 	 51.2255 	 
| 31> H 	 -4.8817 	 62.2388 	 50.9099 	 
| 32> C 	 -3.35661 	 62.8287 	 49.5117 	 
| 33> H 	 -2.40545 	 62.42 	 49.1816 	 
| 34> H 	 -3.1153 	 63.8028 	 49.901 	 
| 35> C 	 -4.21653 	 63.1799 	 48.2711 	 
| 36> H 	 -5.15466 	 63.4866 	 48.6736 	 
| 37> H 	 -4.46035 	 62.3141 	 47.7146 	 
| 38> H 	 -3.79272 	 63.9715 	 47.7043 	 
| 39> H 	 -9.91515 	 61.3232 	 47.5002 	 
| 40> H 	 -2.85316 	 57.3422 	 49.4069 	 
| 41> *
| 42> 
| 43>                          ****END OF INPUT****
================================================================================

                       ****************************
                       * Single Point Calculation *
                       ****************************

---------------------------------
CARTESIAN COORDINATES (ANGSTROEM)
---------------------------------
  S     -7.900790   59.817600   47.869600
  C     -8.987260   61.143200   48.111100
  C     -8.519780   62.058100   49.085400
  C     -7.315780   61.618000   49.692500
  C     -6.780890   60.487400   49.041200
  H     -6.839460   62.085300   50.508200
  C     -9.191130   63.388600   49.452800
  H     -9.770990   63.189500   50.389700
  H     -9.888670   63.577000   48.640800
  C     -8.305540   64.633100   49.448400
  H     -7.441870   64.399800   49.986100
  H     -7.975510   64.924600   48.486500
  C     -9.053200   65.719700   50.188200
  H    -10.104100   65.927700   49.832000
  H     -9.115680   65.419300   51.234500
  H     -8.401460   66.640200   50.117000
  S     -5.410120   58.092700   49.185100
  C     -3.673240   58.095400   49.561900
  C     -3.306360   59.364900   49.863400
  C     -4.319800   60.389000   49.947000
  C     -5.532300   59.831100   49.476100
  H     -2.279910   59.531400   50.222900
  C     -3.997520   61.826800   50.473400
  H     -3.154520   61.745000   51.225500
  H     -4.881700   62.238800   50.909900
  C     -3.356610   62.828700   49.511700
  H     -2.405450   62.420000   49.181600
  H     -3.115300   63.802800   49.901000
  C     -4.216530   63.179900   48.271100
  H     -5.154660   63.486600   48.673600
  H     -4.460350   62.314100   47.714600
  H     -3.792720   63.971500   47.704300
  H     -9.915150   61.323200   47.500200
  H     -2.853160   57.342200   49.406900

----------------------------
CARTESIAN COORDINATES (A.U.)
----------------------------
  NO LB      ZA    FRAG     MASS         X           Y           Z
   0 S    16.0000    0    32.060  -14.930329  113.038882   90.460434
   1 C     6.0000    0    12.011  -16.983460  115.543903   90.916803
   2 C     6.0000    0    12.011  -16.100051  117.272813   92.757963
   3 C     6.0000    0    12.011  -13.824821  116.441145   93.905216
   4 C     6.0000    0    12.011  -12.814025  114.304621   92.674437
   5 H     1.0000    0     1.008  -12.924706  117.324214   95.446666
   6 C     6.0000    0    12.011  -17.368719  119.787094   93.452249
   7 H     1.0000    0     1.008  -18.464495  119.410850   95.222733
   8 H     1.0000    0     1.008  -18.686878  120.143118   91.917791
   9 C     6.0000    0    12.011  -15.695196  122.138858   93.443934
  10 H     1.0000    0     1.008  -14.063096  121.697985   94.460040
  11 H     1.0000    0     1.008  -15.071530  122.689713   91.626206
  12 C     6.0000    0    12.011  -17.108069  124.192235   94.841953
  13 H     1.0000    0     1.008  -19.093982  124.585298   94.168833
  14 H     1.0000    0     1.008  -17.226139  123.624561   96.819174
  15 H     1.0000    0     1.008  -15.876459  125.931728   94.707405
  16 S    16.0000    0    32.060  -10.223645  109.779293   92.946369
  17 C     6.0000    0    12.011   -6.941418  109.784396   93.658418
  18 C     6.0000    0    12.011   -6.248115  112.183403   94.228170
  19 C     6.0000    0    12.011   -8.163239  114.118672   94.386151
  20 C     6.0000    0    12.011  -10.454532  113.064393   93.496279
  21 H     1.0000    0     1.008   -4.308406  112.498042   94.907527
  22 C     6.0000    0    12.011   -7.554218  116.835720   95.380903
  23 H     1.0000    0     1.008   -5.961179  116.681140   96.802166
  24 H     1.0000    0     1.008   -9.225076  117.614287   96.205769
  25 C     6.0000    0    12.011   -6.343074  118.729036   93.563553
  26 H     1.0000    0     1.008   -4.545642  117.956705   92.939755
  27 H     1.0000    0     1.008   -5.887064  120.569819   94.299224
  28 C     6.0000    0    12.011   -7.968087  119.392708   91.219159
  29 H     1.0000    0     1.008   -9.740896  119.972287   91.979774
  30 H     1.0000    0     1.008   -8.428840  117.756583   90.167527
  31 H     1.0000    0     1.008   -7.167202  120.888615   90.148062
  32 H     1.0000    0     1.008  -18.736918  115.884054   89.762369
  33 H     1.0000    0     1.008   -5.391691  108.361054   93.365510

--------------------------------
INTERNAL COORDINATES (ANGSTROEM)
--------------------------------
 S      0   0   0     0.000000000000     0.00000000     0.00000000
 C      1   0   0     1.730882627708     0.00000000     0.00000000
 C      2   1   0     1.415923744557   112.55826796     0.00000000
 C      3   2   1     1.418405590796   111.98010145   356.02721328
 C      4   3   2     1.410161466677   111.90424045     8.79338514
 H      4   3   2     1.053857923252   125.26532903   186.52106051
 C      3   2   1     1.534901896702   125.47880790   174.99107683
 H      7   3   2     1.119669611805   105.82312245    99.67270600
 H      7   3   2     1.086922541674   104.60350143   344.75000981
 C      7   3   2     1.527438790296   116.87070441   231.36162109
 H     10   7   3     1.043779693661   107.22632107   311.64810193
 H     10   7   3     1.057895864866   114.07925723    68.41158272
 C     10   7   3     1.512282736660   107.29964656   195.22982303
 H     13  10   7     1.128952279771   115.99189967   307.21152966
 H     13  10   7     1.090361224732   107.44564011    67.42886235
 H     13  10   7     1.130112701282   105.62312060   183.14407694
 S      5   4   3     2.763024736208   149.20465295   214.41452083
 C     17   5   4     1.777283788369   119.64065164   290.14856982
 C     18  17   5     1.355408954670   108.24660833     6.11806869
 C     19  18  17     1.443201442488   119.17226988     5.44340271
 C     20  19  18     1.415328749796   107.61357477   351.27535306
 H     19  18  17     1.100255471470   117.83581172   173.86228801
 C     20  19  18     1.564682139733   121.79703092   171.74059135
 H     23  20  19     1.132693537547   108.07830009   329.88622144
 H     23  20  19     1.068667638885   108.73938527   208.25818404
 C     23  20  19     1.529521535677   118.47008952    80.98827960
 H     26  23  20     1.086603444500   108.14532541   299.86657001
 H     26  23  20     1.076408758837   117.34319566   181.80690304
 C     26  23  20     1.549803925147   114.78741245    61.95609712
 H     29  26  23     1.065907611803   104.55279757    53.46805693
 H     29  26  23     1.057709829017   111.32002150   302.49890463
 H     29  26  23     1.061841662443   112.01011363   172.28242324
 H      2   1   3     1.125423770008   124.35217084   174.45254483
 H     18  17   5     1.124218148937   133.04992919   199.74860320

---------------------------
INTERNAL COORDINATES (A.U.)
---------------------------
 S      0   0   0     0.000000000000     0.00000000     0.00000000
 C      1   0   0     3.270894136329     0.00000000     0.00000000
 C      2   1   0     2.675708103729   112.55826796     0.00000000
 C      3   2   1     2.680398113426   111.98010145   356.02721328
 C      4   3   2     2.664818976628   111.90424045     8.79338514
 H      4   3   2     1.991502859008   125.26532903   186.52106051
 C      3   2   1     2.900544227203   125.47880790   174.99107683
 H      7   3   2     2.115868926786   105.82312245    99.67270600
 H      7   3   2     2.053985932550   104.60350143   344.75000981
 C      7   3   2     2.886440999987   116.87070441   231.36162109
 H     10   7   3     1.972457765168   107.22632107   311.64810193
 H     10   7   3     1.999133462804   114.07925723    68.41158272
 C     10   7   3     2.857800209344   107.29964656   195.22982303
 H     13  10   7     2.133410627033   115.99189967   307.21152966
 H     13  10   7     2.060484101791   107.44564011    67.42886235
 H     13  10   7     2.135603505890   105.62312060   183.14407694
 S      5   4   3     5.221360052684   149.20465295   214.41452083
 C     17   5   4     3.358579622276   119.64065164   290.14856982
 C     18  17   5     2.561351723791   108.24660833     6.11806869
 C     19  18  17     2.727255482383   119.17226988     5.44340271
 C     20  19  18     2.674583726580   107.61357477   351.27535306
 H     19  18  17     2.079181518427   117.83581172   173.86228801
 C     20  19  18     2.956820730734   121.79703092   171.74059135
 H     23  20  19     2.140480579626   108.07830009   329.88622144
 H     23  20  19     2.019489165677   108.73938527   208.25818404
 C     23  20  19     2.890376818364   118.47008952    80.98827960
 H     26  23  20     2.053382926281   108.14532541   299.86657001
 H     26  23  20     2.034117762355   117.34319566   181.80690304
 C     26  23  20     2.928704979803   114.78741245    61.95609712
 H     29  26  23     2.014273470370   104.55279757    53.46805693
 H     29  26  23     1.998781906000   111.32002150   302.49890463
 H     29  26  23     2.006589939605   112.01011363   172.28242324
 H      2   1   3     2.126742709921   124.35217084   174.45254483
 H     18  17   5     2.124464416275   133.04992919   199.74860320

---------------------
BASIS SET INFORMATION
---------------------
There are 3 groups of distinct atoms

 Group   1 Type S   : 10s7p1d contracted to 4s3p1d pattern {5311/511/1}
 Group   2 Type C   : 7s4p1d contracted to 3s2p1d pattern {511/31/1}
 Group   3 Type H   : 4s1p contracted to 2s1p pattern {31/1}

Atom   0S    basis set group =>   1
Atom   1C    basis set group =>   2
Atom   2C    basis set group =>   2
Atom   3C    basis set group =>   2
Atom   4C    basis set group =>   2
Atom   5H    basis set group =>   3
Atom   6C    basis set group =>   2
Atom   7H    basis set group =>   3
Atom   8H    basis set group =>   3
Atom   9C    basis set group =>   2
Atom  10H    basis set group =>   3
Atom  11H    basis set group =>   3
Atom  12C    basis set group =>   2
Atom  13H    basis set group =>   3
Atom  14H    basis set group =>   3
Atom  15H    basis set group =>   3
Atom  16S    basis set group =>   1
Atom  17C    basis set group =>   2
Atom  18C    basis set group =>   2
Atom  19C    basis set group =>   2
Atom  20C    basis set group =>   2
Atom  21H    basis set group =>   3
Atom  22C    basis set group =>   2
Atom  23H    basis set group =>   3
Atom  24H    basis set group =>   3
Atom  25C    basis set group =>   2
Atom  26H    basis set group =>   3
Atom  27H    basis set group =>   3
Atom  28C    basis set group =>   2
Atom  29H    basis set group =>   3
Atom  30H    basis set group =>   3
Atom  31H    basis set group =>   3
Atom  32H    basis set group =>   3
Atom  33H    basis set group =>   3


           ************************************************************
           *        Program running with 16 parallel MPI-processes    *
           *              working on a common directory               *
           ************************************************************
------------------------------------------------------------------------------
                           ORCA GTO INTEGRAL CALCULATION
------------------------------------------------------------------------------

                         BASIS SET STATISTICS AND STARTUP INFO

 # of primitive gaussian shells          ...  294
 # of primitive gaussian functions       ...  534
 # of contracted shells                  ...  154
 # of contracted basis functions         ...  322
 Highest angular momentum                ...    2
 Maximum contraction depth               ...    5
 Integral package used                   ... LIBINT
 Integral threshhold            Thresh   ...  1.000e-10
 Primitive cut-off              TCut     ...  1.000e-11


------------------------------ INTEGRAL EVALUATION ----------------------------


 * One electron integrals 
 Pre-screening matrix                    ... done
 Shell pair data                         ... done (   0.003 sec)



           ************************************************************
           *        Program running with 16 parallel MPI-processes    *
           *              working on a common directory               *
           ************************************************************
-------------------------------------------------------------------------------
                                 ORCA SCF
-------------------------------------------------------------------------------

------------
SCF SETTINGS
------------
Hamiltonian:
 Density Functional     Method          .... DFT(GTOs)
 Exchange Functional    Exchange        .... WB97X-D3
 Correlation Functional Correlation     .... WB97X-D3
 Gradients option       PostSCFGGA      .... off
 Hybrid DFT is turned on
   Fraction HF Exchange ScalHFX         ....  0.195728
   Scaling of DF-GGA-X  ScalDFX         ....  0.000000
   Scaling of DF-GGA-C  ScalDFC         ....  1.000000
   Scaling of DF-LDA-C  ScalLDAC        ....  1.000000
   Perturbative correction              ....  0.000000
   Density functional embedding theory  .... OFF
 Long-range corrected/Screened/Range-Separated Hybrid DFT is turned on
   Amount of maximum screened exact exchange              ....  0.804272
   Range separation parameter mu (erf(mu*r12)/r12)        ....  0.250000


General Settings:
 Integral files         IntName         .... config_565
 Hartree-Fock type      HFTyp           .... RHF
 Total Charge           Charge          ....    0
 Multiplicity           Mult            ....    1
 Number of Electrons    NEL             ....  134
 Basis Dimension        Dim             ....  322
 Nuclear Repulsion      ENuc            ....   1296.0636131729 Eh

Convergence Acceleration:
 DIIS                   CNVDIIS         .... on
   Start iteration      DIISMaxIt       ....    12
   Startup error        DIISStart       ....  0.200000
   # of expansion vecs  DIISMaxEq       ....     5
   Bias factor          DIISBfac        ....   1.050
   Max. coefficient     DIISMaxC        ....  10.000
 Newton-Raphson         CNVNR           .... off
 SOSCF                  CNVSOSCF        .... on
   Start iteration      SOSCFMaxIt      ....   150
   Startup grad/error   SOSCFStart      ....  0.003300
 Level Shifting         CNVShift        .... on
   Level shift para.    LevelShift      ....    0.2500
   Turn off err/grad.   ShiftErr        ....    0.0010
 Zerner damping         CNVZerner       .... off
 Static damping         CNVDamp         .... on
   Fraction old density DampFac         ....    0.7000
   Max. Damping (<1)    DampMax         ....    0.9800
   Min. Damping (>=0)   DampMin         ....    0.0000
   Turn off err/grad.   DampErr         ....    0.1000
 Fernandez-Rico         CNVRico         .... off

SCF Procedure:
 Maximum # iterations   MaxIter         ....   125
 SCF integral mode      SCFMode         .... Direct
   Integral package                     .... LIBINT
 Reset frequency        DirectResetFreq ....    20
 Integral Threshold     Thresh          ....  1.000e-10 Eh
 Primitive CutOff       TCut            ....  1.000e-11 Eh

Convergence Tolerance:
 Convergence Check Mode ConvCheckMode   .... Total+1el-Energy
 Convergence forced     ConvForced      .... 0
 Energy Change          TolE            ....  1.000e-06 Eh
 1-El. energy change                    ....  1.000e-03 Eh
 Orbital Gradient       TolG            ....  5.000e-05
 Orbital Rotation angle TolX            ....  5.000e-05
 DIIS Error             TolErr          ....  1.000e-06


Diagonalization of the overlap matrix:
Smallest eigenvalue                        ... 7.201e-04
Time for diagonalization                   ...    0.016 sec
Threshold for overlap eigenvalues          ... 1.000e-08
Number of eigenvalues below threshold      ... 0
Time for construction of square roots      ...    0.037 sec
Total time needed                          ...    0.053 sec

-------------------
DFT GRID GENERATION
-------------------

General Integration Accuracy     IntAcc      ...  4.340
Radial Grid Type                 RadialGrid  ... Gauss-Chebyshev
Angular Grid (max. acc.)         AngularGrid ... Lebedev-110
Angular grid pruning method      GridPruning ... 3 (G Style)
Weight generation scheme         WeightScheme... Becke
Basis function cutoff            BFCut       ...    1.0000e-10
Integration weight cutoff        WCut        ...    1.0000e-14
Grids for H and He will be reduced by one unit

# of grid points (after initial pruning)     ...  41088 (   0.0 sec)
# of grid points (after weights+screening)   ...  36890 (   0.0 sec)
nearest neighbour list constructed           ...    0.0 sec
Grid point re-assignment to atoms done       ...    0.0 sec
Grid point division into batches done        ...    0.0 sec
Reduced shell lists constructed in    0.1 sec

Total number of grid points                  ...    36890
Total number of batches                      ...      590
Average number of points per batch           ...       62
Average number of grid points per atom       ...     1085
Average number of shells per batch           ...    74.89 (48.63%)
Average number of basis functions per batch  ...   147.42 (45.78%)
Average number of large shells per batch     ...    47.50 (63.42%)
Average number of large basis fcns per batch ...    98.39 (66.74%)
Maximum spatial batch extension              ...  15.10, 16.55, 16.71 au
Average spatial batch extension              ...   0.21,  0.23,  0.24 au

Time for grid setup =    0.248 sec

------------------------------
INITIAL GUESS: MODEL POTENTIAL
------------------------------
Loading Hartree-Fock densities                     ... done
Calculating cut-offs                               ... done
Setting up the integral package                    ... done
Initializing the effective Hamiltonian             ... done
Starting the Coulomb interaction                   ... done (   0.0 sec)
Reading the grid                                   ... done
Mapping shells                                     ... done
Starting the XC term evaluation                    ... done (   0.1 sec)
  promolecular density results
     # of electrons  =    133.982100781
     EX              =   -126.685031140
     EC              =     -4.617933083
     EX+EC           =   -131.302964222
Transforming the Hamiltonian                       ... done (   0.0 sec)
Diagonalizing the Hamiltonian                      ... done (   0.0 sec)
Back transforming the eigenvectors                 ... done (   0.0 sec)
Now organizing SCF variables                       ... done
                      ------------------
                      INITIAL GUESS DONE (   0.5 sec)
                      ------------------
--------------
SCF ITERATIONS
--------------
ITER       Energy         Delta-E        Max-DP      RMS-DP      [F,P]     Damp
               ***  Starting incremental Fock matrix formation  ***
  0  -1339.4134892462   0.000000000000 0.06937269  0.00155917  0.1676352 0.7000
  1  -1339.6011972708  -0.187708024594 0.04654138  0.00113270  0.1014251 0.7000
                               ***Turning on DIIS***
  2  -1339.6916092570  -0.090411986182 0.08495184  0.00212089  0.0527000 0.0000
  3  -1339.8279575503  -0.136348293262 0.04190030  0.00098223  0.0438864 0.0000
  4  -1339.8576712383  -0.029713688040 0.00807081  0.00019584  0.0080265 0.0000
                      *** Initiating the SOSCF procedure ***
                           *** Shutting down DIIS ***
                      *** Re-Reading the Fockian *** 
                      *** Removing any level shift *** 
ITER      Energy       Delta-E        Grad      Rot      Max-DP    RMS-DP
  5  -1339.85859913  -0.0009278957  0.001783  0.001783  0.002922  0.000100
               *** Restarting incremental Fock matrix formation ***
  6  -1339.85879653  -0.0001973991  0.001659  0.004726  0.002467  0.000063
  7  -1339.85886509  -0.0000685575  0.000887  0.005588  0.003141  0.000060
  8  -1339.85888382  -0.0000187295  0.000379  0.000576  0.000695  0.000016
  9  -1339.85888758  -0.0000037642  0.000066  0.000268  0.000212  0.000006
                 **** Energy Check signals convergence ****
              ***Rediagonalizing the Fockian in SOSCF/NRSCF***

               *****************************************************
               *                     SUCCESS                       *
               *           SCF CONVERGED AFTER  10 CYCLES          *
               *****************************************************

Setting up the final grid:

General Integration Accuracy     IntAcc      ...  4.670
Radial Grid Type                 RadialGrid  ... Gauss-Chebyshev
Angular Grid (max. acc.)         AngularGrid ... Lebedev-302
Angular grid pruning method      GridPruning ... 3 (G Style)
Weight generation scheme         WeightScheme... Becke
Basis function cutoff            BFCut       ...    1.0000e-10
Integration weight cutoff        WCut        ...    1.0000e-14
Grids for H and He will be reduced by one unit

# of grid points (after initial pruning)     ... 161752 (   0.0 sec)
# of grid points (after weights+screening)   ... 142359 (   0.2 sec)
nearest neighbour list constructed           ...    0.0 sec
Grid point re-assignment to atoms done       ...    0.0 sec
Grid point division into batches done        ...    0.5 sec
Reduced shell lists constructed in    0.6 sec

Total number of grid points                  ...   142359
Total number of batches                      ...     2241
Average number of points per batch           ...       63
Average number of grid points per atom       ...     4187
Average number of shells per batch           ...    69.75 (45.29%)
Average number of basis functions per batch  ...   136.99 (42.54%)
Average number of large shells per batch     ...    42.49 (60.92%)
Average number of large basis fcns per batch ...    87.13 (63.60%)
Maximum spatial batch extension              ...  14.28, 13.62, 19.18 au
Average spatial batch extension              ...   0.15,  0.15,  0.15 au

Final grid set up in    1.1 sec
Final integration                            ... done (   0.4 sec)
Change in XC energy                          ...     0.007515052
Integrated number of electrons               ...   133.999792325
Previous integrated no of electrons          ...   133.996726888

----------------
TOTAL SCF ENERGY
----------------

Total Energy       :        -1339.85137269 Eh          -36459.20940 eV

Components:
Nuclear Repulsion  :         1296.06361317 Eh           35267.68389 eV
Electronic Energy  :        -2635.91498586 Eh          -71726.89329 eV
One Electron Energy:        -4408.61983548 Eh         -119964.64461 eV
Two Electron Energy:         1772.70484962 Eh           48237.75132 eV

Virial components:
Potential Energy   :        -2671.11754338 Eh          -72684.80358 eV
Kinetic Energy     :         1331.26617069 Eh           36225.59418 eV
Virial Ratio       :            2.00644890


DFT components:
N(Alpha)           :       66.999896162259 electrons
N(Beta)            :       66.999896162259 electrons
N(Total)           :      133.999792324517 electrons
E(XC)              :      -94.213155411442 Eh       
DFET-embed. en.    :        0.000000000000 Eh       

---------------
SCF CONVERGENCE
---------------

  Last Energy change         ...   -1.5786e-07  Tolerance :   1.0000e-06
  Last MAX-Density change    ...    1.0383e-04  Tolerance :   1.0000e-05
  Last RMS-Density change    ...    2.7391e-06  Tolerance :   1.0000e-06
  Last Orbital Gradient      ...    7.8170e-05  Tolerance :   5.0000e-05
  Last Orbital Rotation      ...    1.4419e-04  Tolerance :   5.0000e-05

             **** THE GBW FILE WAS UPDATED (config_565.gbw) ****
             **** DENSITY FILE WAS UPDATED (config_565.scfp) ****
             **** ENERGY FILE WAS UPDATED (config_565.en.tmp) ****
             **** THE GBW FILE WAS UPDATED (config_565.gbw) ****
             **** DENSITY FILE WAS UPDATED (config_565.scfp) ****
----------------
ORBITAL ENERGIES
----------------

  NO   OCC          E(Eh)            E(eV) 
   0   2.0000     -88.974760     -2421.1263 
   1   2.0000     -88.967977     -2420.9417 
   2   2.0000     -10.336831      -281.2795 
   3   2.0000     -10.334704      -281.2216 
   4   2.0000     -10.319263      -280.8014 
   5   2.0000     -10.318888      -280.7912 
   6   2.0000     -10.312390      -280.6144 
   7   2.0000     -10.304030      -280.3869 
   8   2.0000     -10.303775      -280.3800 
   9   2.0000     -10.294830      -280.1366 
  10   2.0000     -10.293377      -280.0970 
  11   2.0000     -10.292999      -280.0867 
  12   2.0000     -10.286579      -279.9120 
  13   2.0000     -10.283259      -279.8217 
  14   2.0000     -10.280349      -279.7425 
  15   2.0000     -10.260895      -279.2132 
  16   2.0000      -8.089024      -220.1135 
  17   2.0000      -8.081852      -219.9184 
  18   2.0000      -6.047498      -164.5608 
  19   2.0000      -6.043561      -164.4537 
  20   2.0000      -6.040591      -164.3728 
  21   2.0000      -6.039898      -164.3540 
  22   2.0000      -6.036540      -164.2626 
  23   2.0000      -6.032357      -164.1488 
  24   2.0000      -1.003563       -27.3083 
  25   2.0000      -0.980636       -26.6845 
  26   2.0000      -0.917886       -24.9770 
  27   2.0000      -0.906786       -24.6749 
  28   2.0000      -0.867859       -23.6156 
  29   2.0000      -0.855459       -23.2782 
  30   2.0000      -0.842969       -22.9384 
  31   2.0000      -0.812344       -22.1050 
  32   2.0000      -0.783415       -21.3178 
  33   2.0000      -0.768474       -20.9112 
  34   2.0000      -0.712017       -19.3750 
  35   2.0000      -0.698084       -18.9958 
  36   2.0000      -0.690410       -18.7870 
  37   2.0000      -0.656593       -17.8668 
  38   2.0000      -0.634560       -17.2673 
  39   2.0000      -0.625769       -17.0280 
  40   2.0000      -0.590309       -16.0631 
  41   2.0000      -0.573399       -15.6030 
  42   2.0000      -0.560597       -15.2546 
  43   2.0000      -0.554025       -15.0758 
  44   2.0000      -0.545371       -14.8403 
  45   2.0000      -0.525282       -14.2937 
  46   2.0000      -0.514674       -14.0050 
  47   2.0000      -0.511686       -13.9237 
  48   2.0000      -0.502266       -13.6674 
  49   2.0000      -0.495538       -13.4843 
  50   2.0000      -0.492539       -13.4027 
  51   2.0000      -0.479090       -13.0367 
  52   2.0000      -0.473797       -12.8927 
  53   2.0000      -0.467117       -12.7109 
  54   2.0000      -0.462636       -12.5890 
  55   2.0000      -0.450026       -12.2458 
  56   2.0000      -0.447816       -12.1857 
  57   2.0000      -0.443652       -12.0724 
  58   2.0000      -0.429337       -11.6829 
  59   2.0000      -0.424001       -11.5376 
  60   2.0000      -0.419098       -11.4042 
  61   2.0000      -0.413665       -11.2564 
  62   2.0000      -0.409886       -11.1536 
  63   2.0000      -0.357083        -9.7167 
  64   2.0000      -0.335043        -9.1170 
  65   2.0000      -0.330421        -8.9912 
  66   2.0000      -0.281125        -7.6498 
  67   0.0000       0.016214         0.4412 
  68   0.0000       0.079980         2.1764 
  69   0.0000       0.102127         2.7790 
  70   0.0000       0.114537         3.1167 
  71   0.0000       0.131162         3.5691 
  72   0.0000       0.141799         3.8586 
  73   0.0000       0.148540         4.0420 
  74   0.0000       0.152166         4.1406 
  75   0.0000       0.159752         4.3471 
  76   0.0000       0.167967         4.5706 
  77   0.0000       0.170771         4.6469 
  78   0.0000       0.175886         4.7861 
  79   0.0000       0.189361         5.1528 
  80   0.0000       0.193569         5.2673 
  81   0.0000       0.208995         5.6871 
  82   0.0000       0.211058         5.7432 
  83   0.0000       0.215470         5.8632 
  84   0.0000       0.223167         6.0727 
  85   0.0000       0.226753         6.1703 
  86   0.0000       0.235527         6.4090 
  87   0.0000       0.241252         6.5648 
  88   0.0000       0.246073         6.6960 
  89   0.0000       0.252985         6.8841 
  90   0.0000       0.264609         7.2004 
  91   0.0000       0.281576         7.6621 
  92   0.0000       0.291264         7.9257 
  93   0.0000       0.303177         8.2499 
  94   0.0000       0.308679         8.3996 
  95   0.0000       0.315701         8.5907 
  96   0.0000       0.329294         8.9606 
  97   0.0000       0.348711         9.4889 
  98   0.0000       0.356678         9.7057 
  99   0.0000       0.359216         9.7748 
 100   0.0000       0.377309        10.2671 
 101   0.0000       0.404676        11.0118 
 102   0.0000       0.420442        11.4408 
 103   0.0000       0.432075        11.7574 
 104   0.0000       0.435561        11.8522 
 105   0.0000       0.440026        11.9737 
 106   0.0000       0.459762        12.5108 
 107   0.0000       0.465831        12.6759 
 108   0.0000       0.485469        13.2103 
 109   0.0000       0.494705        13.4616 
 110   0.0000       0.500398        13.6165 
 111   0.0000       0.512159        13.9366 
 112   0.0000       0.515803        14.0357 
 113   0.0000       0.531206        14.4549 
 114   0.0000       0.533999        14.5308 
 115   0.0000       0.542053        14.7500 
 116   0.0000       0.547113        14.8877 
 117   0.0000       0.557222        15.1628 
 118   0.0000       0.559963        15.2374 
 119   0.0000       0.566860        15.4251 
 120   0.0000       0.576172        15.6784 
 121   0.0000       0.588732        16.0202 
 122   0.0000       0.594565        16.1789 
 123   0.0000       0.603654        16.4263 
 124   0.0000       0.611250        16.6329 
 125   0.0000       0.628823        17.1112 
 126   0.0000       0.639384        17.3985 
 127   0.0000       0.643697        17.5159 
 128   0.0000       0.648045        17.6342 
 129   0.0000       0.663553        18.0562 
 130   0.0000       0.668398        18.1880 
 131   0.0000       0.681880        18.5549 
 132   0.0000       0.694738        18.9048 
 133   0.0000       0.700984        19.0747 
 134   0.0000       0.703625        19.1466 
 135   0.0000       0.707806        19.2604 
 136   0.0000       0.716986        19.5102 
 137   0.0000       0.719558        19.5802 
 138   0.0000       0.730296        19.8724 
 139   0.0000       0.740551        20.1514 
 140   0.0000       0.743742        20.2382 
 141   0.0000       0.745255        20.2794 
 142   0.0000       0.751025        20.4364 
 143   0.0000       0.756711        20.5912 
 144   0.0000       0.758553        20.6413 
 145   0.0000       0.762462        20.7477 
 146   0.0000       0.763578        20.7780 
 147   0.0000       0.776688        21.1348 
 148   0.0000       0.780680        21.2434 
 149   0.0000       0.784331        21.3427 
 150   0.0000       0.786947        21.4139 
 151   0.0000       0.793087        21.5810 
 152   0.0000       0.797168        21.6921 
 153   0.0000       0.800037        21.7701 
 154   0.0000       0.803359        21.8605 
 155   0.0000       0.808465        21.9994 
 156   0.0000       0.812211        22.1014 
 157   0.0000       0.815861        22.2007 
 158   0.0000       0.825884        22.4735 
 159   0.0000       0.826803        22.4984 
 160   0.0000       0.829326        22.5671 
 161   0.0000       0.840783        22.8789 
 162   0.0000       0.843860        22.9626 
 163   0.0000       0.851390        23.1675 
 164   0.0000       0.861262        23.4361 
 165   0.0000       0.871805        23.7230 
 166   0.0000       0.877834        23.8871 
 167   0.0000       0.887891        24.1607 
 168   0.0000       0.898868        24.4594 
 169   0.0000       0.911295        24.7976 
 170   0.0000       0.917142        24.9567 
 171   0.0000       0.928072        25.2541 
 172   0.0000       0.934599        25.4317 
 173   0.0000       0.943108        25.6633 
 174   0.0000       0.945315        25.7233 
 175   0.0000       0.962667        26.1955 
 176   0.0000       0.986884        26.8545 
 177   0.0000       0.999306        27.1925 
 178   0.0000       1.027497        27.9596 
 179   0.0000       1.052992        28.6534 
 180   0.0000       1.054629        28.6979 
 181   0.0000       1.060089        28.8465 
 182   0.0000       1.103356        30.0238 
 183   0.0000       1.105535        30.0831 
 184   0.0000       1.130554        30.7639 
 185   0.0000       1.136234        30.9185 
 186   0.0000       1.150493        31.3065 
 187   0.0000       1.166143        31.7324 
 188   0.0000       1.182646        32.1814 
 189   0.0000       1.186967        32.2990 
 190   0.0000       1.210735        32.9458 
 191   0.0000       1.225357        33.3437 
 192   0.0000       1.246136        33.9091 
 193   0.0000       1.261260        34.3206 
 194   0.0000       1.276999        34.7489 
 195   0.0000       1.300752        35.3953 
 196   0.0000       1.314769        35.7767 
 197   0.0000       1.325258        36.0621 
 198   0.0000       1.342834        36.5404 
 199   0.0000       1.376449        37.4551 
 200   0.0000       1.377213        37.4759 
 201   0.0000       1.399102        38.0715 
 202   0.0000       1.435964        39.0746 
 203   0.0000       1.448801        39.4239 
 204   0.0000       1.477004        40.1913 
 205   0.0000       1.485988        40.4358 
 206   0.0000       1.500446        40.8292 
 207   0.0000       1.511700        41.1355 
 208   0.0000       1.530803        41.6553 
 209   0.0000       1.564211        42.5643 
 210   0.0000       1.585343        43.1394 
 211   0.0000       1.600701        43.5573 
 212   0.0000       1.607329        43.7377 
 213   0.0000       1.621281        44.1173 
 214   0.0000       1.638634        44.5895 
 215   0.0000       1.675480        45.5921 
 216   0.0000       1.682898        45.7940 
 217   0.0000       1.706353        46.4322 
 218   0.0000       1.728937        47.0468 
 219   0.0000       1.745947        47.5096 
 220   0.0000       1.787659        48.6447 
 221   0.0000       1.792732        48.7827 
 222   0.0000       1.800549        48.9954 
 223   0.0000       1.804912        49.1142 
 224   0.0000       1.814339        49.3707 
 225   0.0000       1.820273        49.5322 
 226   0.0000       1.828576        49.7581 
 227   0.0000       1.839892        50.0660 
 228   0.0000       1.850985        50.3679 
 229   0.0000       1.860018        50.6137 
 230   0.0000       1.862978        50.6942 
 231   0.0000       1.866740        50.7966 
 232   0.0000       1.872591        50.9558 
 233   0.0000       1.892401        51.4948 
 234   0.0000       1.894676        51.5568 
 235   0.0000       1.903095        51.7858 
 236   0.0000       1.917458        52.1767 
 237   0.0000       1.931656        52.5630 
 238   0.0000       1.933214        52.6054 
 239   0.0000       1.947491        52.9939 
 240   0.0000       1.952812        53.1387 
 241   0.0000       1.959304        53.3154 
 242   0.0000       1.969420        53.5906 
 243   0.0000       1.974465        53.7279 
 244   0.0000       1.989193        54.1287 
 245   0.0000       2.002612        54.4939 
 246   0.0000       2.006500        54.5996 
 247   0.0000       2.015260        54.8380 
 248   0.0000       2.024305        55.0841 
 249   0.0000       2.030833        55.2618 
 250   0.0000       2.040335        55.5203 
 251   0.0000       2.050971        55.8098 
 252   0.0000       2.059265        56.0354 
 253   0.0000       2.072121        56.3853 
 254   0.0000       2.079122        56.5758 
 255   0.0000       2.096992        57.0621 
 256   0.0000       2.114355        57.5345 
 257   0.0000       2.133506        58.0556 
 258   0.0000       2.142470        58.2996 
 259   0.0000       2.147322        58.4316 
 260   0.0000       2.155665        58.6586 
 261   0.0000       2.164996        58.9125 
 262   0.0000       2.183723        59.4221 
 263   0.0000       2.199107        59.8407 
 264   0.0000       2.207042        60.0567 
 265   0.0000       2.214339        60.2552 
 266   0.0000       2.236779        60.8659 
 267   0.0000       2.257152        61.4202 
 268   0.0000       2.268081        61.7176 
 269   0.0000       2.307899        62.8011 
 270   0.0000       2.321483        63.1708 
 271   0.0000       2.333027        63.4849 
 272   0.0000       2.372543        64.5602 
 273   0.0000       2.394074        65.1461 
 274   0.0000       2.407115        65.5009 
 275   0.0000       2.408403        65.5360 
 276   0.0000       2.429907        66.1211 
 277   0.0000       2.449753        66.6612 
 278   0.0000       2.465537        67.0907 
 279   0.0000       2.479347        67.4665 
 280   0.0000       2.484278        67.6006 
 281   0.0000       2.497606        67.9633 
 282   0.0000       2.519861        68.5689 
 283   0.0000       2.531883        68.8961 
 284   0.0000       2.542221        69.1774 
 285   0.0000       2.550076        69.3911 
 286   0.0000       2.565186        69.8023 
 287   0.0000       2.579535        70.1927 
 288   0.0000       2.603753        70.8517 
 289   0.0000       2.607392        70.9507 
 290   0.0000       2.639995        71.8379 
 291   0.0000       2.653817        72.2140 
 292   0.0000       2.699041        73.4446 
 293   0.0000       2.716578        73.9218 
 294   0.0000       2.722488        74.0827 
 295   0.0000       2.740296        74.5672 
 296   0.0000       2.771554        75.4178 
 297   0.0000       2.783066        75.7311 
 298   0.0000       2.791096        75.9496 
 299   0.0000       2.805492        76.3413 
 300   0.0000       2.824033        76.8458 
 301   0.0000       2.881931        78.4213 
 302   0.0000       2.891451        78.6804 
 303   0.0000       2.911767        79.2332 
 304   0.0000       2.931007        79.7568 
 305   0.0000       2.962434        80.6119 
 306   0.0000       3.002159        81.6929 
 307   0.0000       3.018380        82.1343 
 308   0.0000       3.025992        82.3414 
 309   0.0000       3.034863        82.5828 
 310   0.0000       3.040970        82.7490 
 311   0.0000       3.073536        83.6352 
 312   0.0000       3.101257        84.3895 
 313   0.0000       3.111175        84.6594 
 314   0.0000       3.133432        85.2650 
 315   0.0000       3.154855        85.8480 
 316   0.0000       3.164295        86.1048 
 317   0.0000       3.196652        86.9853 
 318   0.0000       3.256739        88.6204 
 319   0.0000       3.264425        88.8295 
 320   0.0000       3.317993        90.2872 
 321   0.0000       3.422081        93.1195 

                    ********************************
                    * MULLIKEN POPULATION ANALYSIS *
                    ********************************

-----------------------
MULLIKEN ATOMIC CHARGES
-----------------------
   0 S :    0.129413
   1 C :   -0.144667
   2 C :   -0.091344
   3 C :    0.011932
   4 C :   -0.113188
   5 H :   -0.007004
   6 C :    0.037648
   7 H :    0.053853
   8 H :    0.015114
   9 C :   -0.026627
  10 H :    0.010644
  11 H :    0.027964
  12 C :   -0.074772
  13 H :    0.043845
  14 H :    0.031652
  15 H :    0.041741
  16 S :    0.091611
  17 C :   -0.097328
  18 C :   -0.054717
  19 C :   -0.049164
  20 C :   -0.151807
  21 H :    0.023176
  22 C :    0.068569
  23 H :    0.041614
  24 H :    0.016993
  25 C :   -0.071945
  26 H :    0.017721
  27 H :    0.023896
  28 C :   -0.012667
  29 H :   -0.001573
  30 H :    0.034944
  31 H :    0.029325
  32 H :    0.067552
  33 H :    0.077597
Sum of atomic charges:   -0.0000000

--------------------------------
MULLIKEN REDUCED ORBITAL CHARGES
--------------------------------
  0 S s       :     5.837038  s :     5.837038
      pz      :     3.465940  p :     9.922944
      px      :     3.080359
      py      :     3.376645
      dz2     :     0.018221  d :     0.110605
      dxz     :     0.024474
      dyz     :     0.015307
      dx2y2   :     0.019600
      dxy     :     0.033004
  1 C s       :     3.193735  s :     3.193735
      pz      :     1.056514  p :     2.918224
      px      :     0.943159
      py      :     0.918551
      dz2     :     0.006210  d :     0.032709
      dxz     :     0.006473
      dyz     :     0.005157
      dx2y2   :     0.006368
      dxy     :     0.008500
  2 C s       :     3.079692  s :     3.079692
      pz      :     0.991126  p :     2.968870
      px      :     1.005980
      py      :     0.971764
      dz2     :     0.008081  d :     0.042782
      dxz     :     0.006732
      dyz     :     0.008492
      dx2y2   :     0.009348
      dxy     :     0.010129
  3 C s       :     3.192651  s :     3.192651
      pz      :     0.877331  p :     2.762146
      px      :     0.947764
      py      :     0.937051
      dz2     :     0.004978  d :     0.033271
      dxz     :     0.007645
      dyz     :     0.006361
      dx2y2   :     0.007787
      dxy     :     0.006500
  4 C s       :     3.057769  s :     3.057769
      pz      :     1.020010  p :     3.012424
      px      :     0.993319
      py      :     0.999095
      dz2     :     0.008197  d :     0.042994
      dxz     :     0.009727
      dyz     :     0.006603
      dx2y2   :     0.007821
      dxy     :     0.010645
  5 H s       :     0.981227  s :     0.981227
      pz      :     0.011836  p :     0.025777
      px      :     0.007094
      py      :     0.006847
  6 C s       :     2.982218  s :     2.982218
      pz      :     1.005935  p :     2.944924
      px      :     1.024295
      py      :     0.914694
      dz2     :     0.005200  d :     0.035210
      dxz     :     0.009318
      dyz     :     0.004884
      dx2y2   :     0.007536
      dxy     :     0.008272
  7 H s       :     0.924485  s :     0.924485
      pz      :     0.011124  p :     0.021662
      px      :     0.006726
      py      :     0.003813
  8 H s       :     0.961460  s :     0.961460
      pz      :     0.010156  p :     0.023426
      px      :     0.008512
      py      :     0.004759
  9 C s       :     3.007186  s :     3.007186
      pz      :     1.024486  p :     2.980817
      px      :     1.001868
      py      :     0.954464
      dz2     :     0.007357  d :     0.038624
      dxz     :     0.008929
      dyz     :     0.006063
      dx2y2   :     0.007531
      dxy     :     0.008744
 10 H s       :     0.963963  s :     0.963963
      pz      :     0.008147  p :     0.025394
      px      :     0.011765
      py      :     0.005482
 11 H s       :     0.947905  s :     0.947905
      pz      :     0.013838  p :     0.024131
      px      :     0.005708
      py      :     0.004584
 12 C s       :     3.047613  s :     3.047613
      pz      :     1.012881  p :     2.998687
      px      :     0.992706
      py      :     0.993100
      dz2     :     0.008575  d :     0.028472
      dxz     :     0.003065
      dyz     :     0.004067
      dx2y2   :     0.005434
      dxy     :     0.007331
 13 H s       :     0.934469  s :     0.934469
      pz      :     0.005168  p :     0.021687
      px      :     0.012348
      py      :     0.004171
 14 H s       :     0.944837  s :     0.944837
      pz      :     0.013456  p :     0.023511
      px      :     0.004854
      py      :     0.005202
 15 H s       :     0.936561  s :     0.936561
      pz      :     0.004328  p :     0.021698
      px      :     0.007090
      py      :     0.010279
 16 S s       :     5.849979  s :     5.849979
      pz      :     3.670511  p :     9.956093
      px      :     3.156316
      py      :     3.129266
      dz2     :     0.011554  d :     0.102317
      dxz     :     0.016980
      dyz     :     0.015047
      dx2y2   :     0.045676
      dxy     :     0.013059
 17 C s       :     3.146244  s :     3.146244
      pz      :     1.084786  p :     2.916483
      px      :     0.841200
      py      :     0.990497
      dz2     :     0.003659  d :     0.034601
      dxz     :     0.005130
      dyz     :     0.005425
      dx2y2   :     0.011445
      dxy     :     0.008943
 18 C s       :     3.160596  s :     3.160596
      pz      :     0.995585  p :     2.857456
      px      :     0.927958
      py      :     0.933913
      dz2     :     0.003083  d :     0.036665
      dxz     :     0.004380
      dyz     :     0.007992
      dx2y2   :     0.011035
      dxy     :     0.010175
 19 C s       :     3.075847  s :     3.075847
      pz      :     1.001054  p :     2.933606
      px      :     0.972956
      py      :     0.959597
      dz2     :     0.004331  d :     0.039710
      dxz     :     0.006941
      dyz     :     0.006119
      dx2y2   :     0.009688
      dxy     :     0.012632
 20 C s       :     3.075541  s :     3.075541
      pz      :     1.080100  p :     3.033533
      px      :     1.049938
      py      :     0.903496
      dz2     :     0.004878  d :     0.042732
      dxz     :     0.007130
      dyz     :     0.006662
      dx2y2   :     0.015160
      dxy     :     0.008902
 21 H s       :     0.953906  s :     0.953906
      pz      :     0.005812  p :     0.022919
      px      :     0.013392
      py      :     0.003715
 22 C s       :     2.986788  s :     2.986788
      pz      :     1.030683  p :     2.910698
      px      :     0.965706
      py      :     0.914308
      dz2     :     0.003633  d :     0.033945
      dxz     :     0.008830
      dyz     :     0.007265
      dx2y2   :     0.008093
      dxy     :     0.006123
 23 H s       :     0.936415  s :     0.936415
      pz      :     0.008622  p :     0.021971
      px      :     0.009597
      py      :     0.003752
 24 H s       :     0.959087  s :     0.959087
      pz      :     0.006401  p :     0.023920
      px      :     0.011920
      py      :     0.005599
 25 C s       :     3.042385  s :     3.042385
      pz      :     1.002900  p :     2.992109
      px      :     1.026418
      py      :     0.962790
      dz2     :     0.006786  d :     0.037452
      dxz     :     0.007799
      dyz     :     0.008667
      dx2y2   :     0.007772
      dxy     :     0.006429
 26 H s       :     0.959288  s :     0.959288
      pz      :     0.005149  p :     0.022991
      px      :     0.011706
      py      :     0.006136
 27 H s       :     0.952221  s :     0.952221
      pz      :     0.005597  p :     0.023883
      px      :     0.005586
      py      :     0.012700
 28 C s       :     2.968658  s :     2.968658
      pz      :     0.994990  p :     3.014979
      px      :     0.998241
      py      :     1.021747
      dz2     :     0.003467  d :     0.029030
      dxz     :     0.006598
      dyz     :     0.008682
      dx2y2   :     0.005605
      dxy     :     0.004678
 29 H s       :     0.975354  s :     0.975354
      pz      :     0.006673  p :     0.026219
      px      :     0.013190
      py      :     0.006356
 30 H s       :     0.939458  s :     0.939458
      pz      :     0.007405  p :     0.025598
      px      :     0.005992
      py      :     0.012201
 31 H s       :     0.945934  s :     0.945934
      pz      :     0.007508  p :     0.024741
      px      :     0.006807
      py      :     0.010427
 32 H s       :     0.910541  s :     0.910541
      pz      :     0.007233  p :     0.021907
      px      :     0.011359
      py      :     0.003315
 33 H s       :     0.899456  s :     0.899456
      pz      :     0.004985  p :     0.022946
      px      :     0.009277
      py      :     0.008684


                     *******************************
                     * LOEWDIN POPULATION ANALYSIS *
                     *******************************

----------------------
LOEWDIN ATOMIC CHARGES
----------------------
   0 S :    0.423491
   1 C :   -0.222061
   2 C :   -0.061925
   3 C :   -0.058636
   4 C :   -0.191768
   5 H :    0.019728
   6 C :   -0.033302
   7 H :    0.040127
   8 H :    0.029128
   9 C :   -0.033909
  10 H :    0.012517
  11 H :    0.022306
  12 C :   -0.065681
  13 H :    0.029629
  14 H :    0.024748
  15 H :    0.031693
  16 S :    0.383003
  17 C :   -0.200413
  18 C :   -0.074469
  19 C :   -0.060756
  20 C :   -0.180830
  21 H :    0.031193
  22 C :   -0.025425
  23 H :    0.045240
  24 H :    0.020131
  25 C :   -0.037645
  26 H :    0.018310
  27 H :    0.022812
  28 C :   -0.057291
  29 H :    0.016771
  30 H :    0.022308
  31 H :    0.021204
  32 H :    0.039438
  33 H :    0.050334

-------------------------------
LOEWDIN REDUCED ORBITAL CHARGES
-------------------------------
  0 S s       :     5.500397  s :     5.500397
      pz      :     3.454351  p :     9.939040
      px      :     3.085562
      py      :     3.399128
      dz2     :     0.021828  d :     0.137071
      dxz     :     0.031860
      dyz     :     0.016765
      dx2y2   :     0.023842
      dxy     :     0.042776
  1 C s       :     2.948267  s :     2.948267
      pz      :     1.098548  p :     3.196877
      px      :     1.059835
      py      :     1.038494
      dz2     :     0.012816  d :     0.076917
      dxz     :     0.014995
      dyz     :     0.014082
      dx2y2   :     0.015330
      dxy     :     0.019694
  2 C s       :     2.871328  s :     2.871328
      pz      :     1.019423  p :     3.085392
      px      :     1.034595
      py      :     1.031375
      dz2     :     0.017969  d :     0.105204
      dxz     :     0.016579
      dyz     :     0.021768
      dx2y2   :     0.023703
      dxy     :     0.025186
  3 C s       :     2.859218  s :     2.859218
      pz      :     1.033812  p :     3.110497
      px      :     1.037177
      py      :     1.039508
      dz2     :     0.011711  d :     0.088921
      dxz     :     0.020442
      dyz     :     0.017876
      dx2y2   :     0.020527
      dxy     :     0.018364
  4 C s       :     2.917897  s :     2.917897
      pz      :     1.057522  p :     3.172905
      px      :     1.040696
      py      :     1.074687
      dz2     :     0.017322  d :     0.100967
      dxz     :     0.021705
      dyz     :     0.016668
      dx2y2   :     0.018514
      dxy     :     0.026758
  5 H s       :     0.903191  s :     0.903191
      pz      :     0.034037  p :     0.077081
      px      :     0.021804
      py      :     0.021240
  6 C s       :     2.835002  s :     2.835002
      pz      :     1.060028  p :     3.110778
      px      :     1.050895
      py      :     0.999855
      dz2     :     0.014349  d :     0.087521
      dxz     :     0.023265
      dyz     :     0.010404
      dx2y2   :     0.017303
      dxy     :     0.022200
  7 H s       :     0.896541  s :     0.896541
      pz      :     0.030843  p :     0.063332
      px      :     0.020138
      py      :     0.012351
  8 H s       :     0.901723  s :     0.901723
      pz      :     0.028510  p :     0.069150
      px      :     0.025719
      py      :     0.014921
  9 C s       :     2.808752  s :     2.808752
      pz      :     1.070782  p :     3.129914
      px      :     1.047770
      py      :     1.011362
      dz2     :     0.018533  d :     0.095244
      dxz     :     0.021508
      dyz     :     0.014642
      dx2y2   :     0.016742
      dxy     :     0.023819
 10 H s       :     0.911249  s :     0.911249
      pz      :     0.023224  p :     0.076234
      px      :     0.034573
      py      :     0.018437
 11 H s       :     0.905341  s :     0.905341
      pz      :     0.037866  p :     0.072353
      px      :     0.017900
      py      :     0.016587
 12 C s       :     2.848667  s :     2.848667
      pz      :     1.061353  p :     3.145524
      px      :     1.043825
      py      :     1.040345
      dz2     :     0.021002  d :     0.071491
      dxz     :     0.007779
      dyz     :     0.010520
      dx2y2   :     0.013507
      dxy     :     0.018682
 13 H s       :     0.910175  s :     0.910175
      pz      :     0.013676  p :     0.060196
      px      :     0.034869
      py      :     0.011652
 14 H s       :     0.908761  s :     0.908761
      pz      :     0.038569  p :     0.066491
      px      :     0.012610
      py      :     0.015312
 15 H s       :     0.908027  s :     0.908027
      pz      :     0.011243  p :     0.060281
      px      :     0.019778
      py      :     0.029259
 16 S s       :     5.523139  s :     5.523139
      pz      :     3.637726  p :     9.968617
      px      :     3.166621
      py      :     3.164270
      dz2     :     0.013863  d :     0.125241
      dxz     :     0.019724
      dyz     :     0.017430
      dx2y2   :     0.059020
      dxy     :     0.015204
 17 C s       :     2.940767  s :     2.940767
      pz      :     1.087993  p :     3.180026
      px      :     0.990806
      py      :     1.101227
      dz2     :     0.007310  d :     0.079620
      dxz     :     0.010756
      dyz     :     0.010094
      dx2y2   :     0.028725
      dxy     :     0.022735
 18 C s       :     2.872673  s :     2.872673
      pz      :     1.002176  p :     3.107152
      px      :     1.039518
      py      :     1.065457
      dz2     :     0.007204  d :     0.094644
      dxz     :     0.009287
      dyz     :     0.017178
      dx2y2   :     0.030778
      dxy     :     0.030197
 19 C s       :     2.875257  s :     2.875257
      pz      :     1.011284  p :     3.088193
      px      :     1.043681
      py      :     1.033228
      dz2     :     0.008876  d :     0.097306
      dxz     :     0.015788
      dyz     :     0.012283
      dx2y2   :     0.025570
      dxy     :     0.034788
 20 C s       :     2.919882  s :     2.919882
      pz      :     1.082840  p :     3.160179
      px      :     1.073181
      py      :     1.004158
      dz2     :     0.009988  d :     0.100770
      dxz     :     0.015769
      dyz     :     0.014335
      dx2y2   :     0.037006
      dxy     :     0.023672
 21 H s       :     0.902327  s :     0.902327
      pz      :     0.017357  p :     0.066480
      px      :     0.037666
      py      :     0.011456
 22 C s       :     2.836040  s :     2.836040
      pz      :     1.052562  p :     3.104402
      px      :     1.048705
      py      :     1.003134
      dz2     :     0.007907  d :     0.084983
      dxz     :     0.022455
      dyz     :     0.018555
      dx2y2   :     0.020891
      dxy     :     0.015175
 23 H s       :     0.893313  s :     0.893313
      pz      :     0.024471  p :     0.061447
      px      :     0.026202
      py      :     0.010775
 24 H s       :     0.907595  s :     0.907595
      pz      :     0.019922  p :     0.072274
      px      :     0.034253
      py      :     0.018099
 25 C s       :     2.829872  s :     2.829872
      pz      :     1.035171  p :     3.117750
      px      :     1.047037
      py      :     1.035542
      dz2     :     0.014897  d :     0.090023
      dxz     :     0.019614
      dyz     :     0.021306
      dx2y2   :     0.018396
      dxy     :     0.015809
 26 H s       :     0.913806  s :     0.913806
      pz      :     0.017190  p :     0.067884
      px      :     0.034067
      py      :     0.016626
 27 H s       :     0.906229  s :     0.906229
      pz      :     0.018191  p :     0.070959
      px      :     0.016498
      py      :     0.036271
 28 C s       :     2.813599  s :     2.813599
      pz      :     1.043164  p :     3.169639
      px      :     1.054235
      py      :     1.072239
      dz2     :     0.008124  d :     0.074053
      dxz     :     0.018134
      dyz     :     0.021981
      dx2y2   :     0.014268
      dxy     :     0.011546
 29 H s       :     0.911358  s :     0.911358
      pz      :     0.019211  p :     0.071870
      px      :     0.036056
      py      :     0.016603
 30 H s       :     0.904367  s :     0.904367
      pz      :     0.022178  p :     0.073325
      px      :     0.017566
      py      :     0.033581
 31 H s       :     0.907819  s :     0.907819
      pz      :     0.022594  p :     0.070977
      px      :     0.019030
      py      :     0.029354
 32 H s       :     0.892539  s :     0.892539
      pz      :     0.021679  p :     0.068022
      px      :     0.034698
      py      :     0.011645
 33 H s       :     0.881197  s :     0.881197
      pz      :     0.015315  p :     0.068469
      px      :     0.029264
      py      :     0.023890


                      *****************************
                      * MAYER POPULATION ANALYSIS *
                      *****************************

  NA   - Mulliken gross atomic population
  ZA   - Total nuclear charge
  QA   - Mulliken gross atomic charge
  VA   - Mayer's total valence
  BVA  - Mayer's bonded valence
  FA   - Mayer's free valence

  ATOM       NA         ZA         QA         VA         BVA        FA
  0 S     15.8706    16.0000     0.1294     2.5146     2.5146    -0.0000
  1 C      6.1447     6.0000    -0.1447     3.8363     3.8363    -0.0000
  2 C      6.0913     6.0000    -0.0913     4.0119     4.0119    -0.0000
  3 C      5.9881     6.0000     0.0119     3.9316     3.9316    -0.0000
  4 C      6.1132     6.0000    -0.1132     3.9116     3.9116    -0.0000
  5 H      1.0070     1.0000    -0.0070     1.0062     1.0062    -0.0000
  6 C      5.9624     6.0000     0.0376     3.9524     3.9524     0.0000
  7 H      0.9461     1.0000     0.0539     0.9864     0.9864     0.0000
  8 H      0.9849     1.0000     0.0151     0.9906     0.9906     0.0000
  9 C      6.0266     6.0000    -0.0266     4.0618     4.0618     0.0000
 10 H      0.9894     1.0000     0.0106     0.9822     0.9822     0.0000
 11 H      0.9720     1.0000     0.0280     0.9810     0.9810     0.0000
 12 C      6.0748     6.0000    -0.0748     4.0115     4.0115    -0.0000
 13 H      0.9562     1.0000     0.0438     0.9867     0.9867     0.0000
 14 H      0.9683     1.0000     0.0317     0.9883     0.9883    -0.0000
 15 H      0.9583     1.0000     0.0417     0.9821     0.9821     0.0000
 16 S     15.9084    16.0000     0.0916     2.4445     2.4445    -0.0000
 17 C      6.0973     6.0000    -0.0973     3.8463     3.8463    -0.0000
 18 C      6.0547     6.0000    -0.0547     4.0081     4.0081     0.0000
 19 C      6.0492     6.0000    -0.0492     3.9944     3.9944    -0.0000
 20 C      6.1518     6.0000    -0.1518     3.9424     3.9424    -0.0000
 21 H      0.9768     1.0000     0.0232     0.9939     0.9939     0.0000
 22 C      5.9314     6.0000     0.0686     3.9944     3.9944    -0.0000
 23 H      0.9584     1.0000     0.0416     0.9812     0.9812     0.0000
 24 H      0.9830     1.0000     0.0170     0.9915     0.9915     0.0000
 25 C      6.0719     6.0000    -0.0719     4.0888     4.0888     0.0000
 26 H      0.9823     1.0000     0.0177     0.9781     0.9781     0.0000
 27 H      0.9761     1.0000     0.0239     0.9770     0.9770    -0.0000
 28 C      6.0127     6.0000    -0.0127     3.9932     3.9932    -0.0000
 29 H      1.0016     1.0000    -0.0016     1.0094     1.0094    -0.0000
 30 H      0.9651     1.0000     0.0349     0.9982     0.9982     0.0000
 31 H      0.9707     1.0000     0.0293     0.9890     0.9890     0.0000
 32 H      0.9324     1.0000     0.0676     0.9999     0.9999     0.0000
 33 H      0.9224     1.0000     0.0776     0.9938     0.9938    -0.0000

  Mayer bond orders larger than 0.100000
B(  0-S ,  1-C ) :   1.1477 B(  0-S ,  4-C ) :   1.1639 B(  1-C ,  2-C ) :   1.5841 
B(  1-C , 32-H ) :   0.9570 B(  2-C ,  3-C ) :   1.2784 B(  2-C ,  6-C ) :   1.0102 
B(  3-C ,  4-C ) :   1.5170 B(  3-C ,  5-H ) :   0.9997 B(  4-C , 20-C ) :   1.0738 
B(  6-C ,  7-H ) :   0.9448 B(  6-C ,  8-H ) :   0.9401 B(  6-C ,  9-C ) :   1.0606 
B(  9-C , 10-H ) :   0.9510 B(  9-C , 11-H ) :   0.9563 B(  9-C , 12-C ) :   1.0804 
B( 12-C , 13-H ) :   0.9739 B( 12-C , 14-H ) :   0.9766 B( 12-C , 15-H ) :   0.9727 
B( 16-S , 17-C ) :   1.1086 B( 16-S , 20-C ) :   1.1417 B( 17-C , 18-C ) :   1.6697 
B( 17-C , 33-H ) :   0.9554 B( 18-C , 19-C ) :   1.2449 B( 18-C , 21-H ) :   0.9703 
B( 19-C , 20-C ) :   1.5718 B( 19-C , 22-C ) :   1.0233 B( 22-C , 23-H ) :   0.9348 
B( 22-C , 24-H ) :   0.9433 B( 22-C , 25-C ) :   1.0748 B( 25-C , 26-H ) :   0.9542 
B( 25-C , 27-H ) :   0.9573 B( 25-C , 28-C ) :   1.0772 B( 28-C , 29-H ) :   0.9712 
B( 28-C , 30-H ) :   0.9734 B( 28-C , 31-H ) :   0.9744 

-------
TIMINGS
-------

Total SCF time: 0 days 0 hours 0 min 31 sec 

Total time                  ....      31.564 sec
Sum of individual times     ....      30.445 sec  ( 96.5%)

Fock matrix formation       ....      28.312 sec  ( 89.7%)
  XC integration            ....       1.783 sec  (  6.3% of F)
    Basis function eval.    ....       0.220 sec  ( 12.3% of XC)
    Density eval.           ....       0.166 sec  (  9.3% of XC)
    XC-Functional eval.     ....       0.191 sec  ( 10.7% of XC)
    XC-Potential eval.      ....       0.206 sec  ( 11.6% of XC)
Diagonalization             ....       0.150 sec  (  0.5%)
Density matrix formation    ....       0.024 sec  (  0.1%)
Population analysis         ....       0.082 sec  (  0.3%)
Initial guess               ....       0.218 sec  (  0.7%)
Orbital Transformation      ....       0.000 sec  (  0.0%)
Orbital Orthonormalization  ....       0.000 sec  (  0.0%)
DIIS solution               ....       0.224 sec  (  0.7%)
SOSCF solution              ....       0.127 sec  (  0.4%)
Grid generation             ....       1.307 sec  (  4.1%)


-------------------------------------------------------------------------------
                          DFT DISPERSION CORRECTION                            
                                                                               
                              DFTD3 V3.1  Rev 1                                
                              USING zero damping                               
-------------------------------------------------------------------------------
The omegaB97X-D3 functional is recognized. Fit by Chai et al.
Active option DFTDOPT                   ...         3   

molecular C6(AA) [au] = 14219.713850 


            DFT-D V3
 parameters
 s6 scaling factor         :     1.0000 
 rs6 scaling factor        :     1.2810 
 s8 scaling factor         :     1.0000 
 rs8 scaling factor        :     1.0940 
 Damping factor alpha6     :    14.0000 
 Damping factor alpha8     :    16.0000 
 ad hoc parameters k1-k3   :    16.0000     1.3333    -4.0000 

 Edisp/kcal,au: -9.626228581355  -0.015340370070 
 E6   /kcal   :  -4.540819855 
 E8   /kcal   :  -5.085408727 
 % E8         :  52.828672036 

-------------------------   ----------------
Dispersion correction           -0.015340370
-------------------------   ----------------


-------------------------   --------------------
FINAL SINGLE POINT ENERGY     -1339.866713060425
-------------------------   --------------------


                            ***************************************
                            *     ORCA property calculations      *
                            ***************************************

                                    ---------------------
                                    Active property flags
                                    ---------------------
   (+) Dipole Moment


------------------------------------------------------------------------------
                       ORCA ELECTRIC PROPERTIES CALCULATION
------------------------------------------------------------------------------

Dipole Moment Calculation                       ... on
Quadrupole Moment Calculation                   ... off
Polarizability Calculation                      ... off
GBWName                                         ... config_565.gbw
Electron density file                           ... config_565.scfp
The origin for moment calculation is the CENTER OF MASS  = (-11.914186, 115.517771 92.996261)

-------------
DIPOLE MOMENT
-------------
                                X             Y             Z
Electronic contribution:     -1.66573     -31.32800      -5.32718
Nuclear contribution   :      1.83495      32.03356       5.50756
                        -----------------------------------------
Total Dipole Moment    :      0.16922       0.70556       0.18038
                        -----------------------------------------
Magnitude (a.u.)       :      0.74765
Magnitude (Debye)      :      1.90038



--------------------
Rotational spectrum 
--------------------
 
Rotational constants in cm-1:     0.019615     0.009475     0.006977 
Rotational constants in MHz :   588.056681   284.061245   209.180006 

 Dipole components along the rotational axes: 
x,y,z [a.u.] :    -0.417371     0.620154     0.013856 
x,y,z [Debye]:    -1.060872     1.576307     0.035220 

 

Timings for individual modules:

Sum of individual times         ...       32.781 sec (=   0.546 min)
GTO integral calculation        ...        0.789 sec (=   0.013 min)   2.4 %
SCF iterations                  ...       31.993 sec (=   0.533 min)  97.6 %
                             ****ORCA TERMINATED NORMALLY****
TOTAL RUN TIME: 0 days 0 hours 0 minutes 33 seconds 513 msec
