
                                 *****************
                                 * O   R   C   A *
                                 *****************

           --- An Ab Initio, DFT and Semiempirical electronic structure package ---

                  #######################################################
                  #                        -***-                        #
                  #          Department of theory and spectroscopy      #
                  #               Directorship: Frank Neese             #
                  #        Max Planck Institute fuer Kohlenforschung    #
                  #                Kaiser Wilhelm Platz 1               #
                  #                 D-45470 Muelheim/Ruhr               #
                  #                      Germany                        #
                  #                                                     #
                  #                  All rights reserved                #
                  #                        -***-                        #
                  #######################################################


                         Program Version 4.2.1 -  RELEASE  -


 With contributions from (in alphabetic order):
   Daniel Aravena         : Magnetic Suceptibility
   Michael Atanasov       : Ab Initio Ligand Field Theory (pilot matlab implementation)
   Alexander A. Auer      : GIAO ZORA, VPT2
   Ute Becker             : Parallelization
   Giovanni Bistoni       : ED, misc. LED, open-shell LED, HFLD
   Martin Brehm           : Molecular dynamics
   Dmytro Bykov           : SCF Hessian
   Vijay G. Chilkuri      : MRCI spin determinant printing, contributions to CSF-ICE
   Dipayan Datta          : RHF DLPNO-CCSD density
   Achintya Kumar Dutta   : EOM-CC, STEOM-CC
   Dmitry Ganyushin       : Spin-Orbit,Spin-Spin,Magnetic field MRCI
   Miquel Garcia          : C-PCM Hessian, Gaussian charge scheme
   Yang Guo               : DLPNO-NEVPT2, CIM, IAO-localization
   Andreas Hansen         : Spin unrestricted coupled pair/coupled cluster methods
   Benjamin Helmich-Paris : CASSCF linear response (MC-RPA)
   Lee Huntington         : MR-EOM, pCC
   Robert Izsak           : Overlap fitted RIJCOSX, COSX-SCS-MP3, EOM
   Christian Kollmar      : KDIIS, OOCD, Brueckner-CCSD(T), CCSD density
   Simone Kossmann        : Meta GGA functionals, TD-DFT gradient, OOMP2, MP2 Hessian
   Martin Krupicka        : AUTO-CI
   Lucas Lang             : DCDCAS
   Dagmar Lenk            : GEPOL surface, SMD
   Dimitrios Liakos       : Extrapolation schemes; Compound Job, initial MDCI parallelization
   Dimitrios Manganas     : Further ROCIS development; embedding schemes
   Dimitrios Pantazis     : SARC Basis sets
   Taras Petrenko         : DFT Hessian,TD-DFT gradient, ASA, ECA, R-Raman, ABS, FL, XAS/XES, NRVS
   Peter Pinski           : DLPNO-MP2, DLPNO-MP2 Gradient
   Christoph Reimann      : Effective Core Potentials
   Marius Retegan         : Local ZFS, SOC
   Christoph Riplinger    : Optimizer, TS searches, QM/MM, DLPNO-CCSD(T), (RO)-DLPNO pert. Triples
   Tobias Risthaus        : Range-separated hybrids, TD-DFT gradient, RPA, STAB
   Michael Roemelt        : Original ROCIS implementation
   Masaaki Saitow         : Open-shell DLPNO-CCSD energy and density
   Barbara Sandhoefer     : DKH picture change effects
   Avijit Sen             : IP-ROCIS
   Kantharuban Sivalingam : CASSCF convergence, NEVPT2, FIC-MRCI
   Bernardo de Souza      : ESD, SOC TD-DFT
   Georgi Stoychev        : AutoAux, RI-MP2 NMR
   Willem Van den Heuvel  : Paramagnetic NMR
   Boris Wezisla          : Elementary symmetry handling
   Frank Wennmohs         : Technical directorship


 We gratefully acknowledge several colleagues who have allowed us to
 interface, adapt or use parts of their codes:
   Stefan Grimme, W. Hujo, H. Kruse,             : VdW corrections, initial TS optimization,
                  C. Bannwarth                     DFT functionals, gCP, sTDA/sTD-DF
   Ed Valeev, F. Pavosevic, A. Kumar             : LibInt (2-el integral package), F12 methods
   Garnet Chan, S. Sharma, J. Yang, R. Olivares  : DMRG
   Ulf Ekstrom                                   : XCFun DFT Library
   Mihaly Kallay                                 : mrcc  (arbitrary order and MRCC methods)
   Andreas Klamt, Michael Diedenhofen            : otool_cosmo (COSMO solvation model)
   Jiri Pittner, Ondrej Demel                    : Mk-CCSD
   Frank Weinhold                                : gennbo (NPA and NBO analysis)
   Christopher J. Cramer and Donald G. Truhlar   : smd solvation model
   Lars Goerigk                                  : TD-DFT with DH, B97 family of functionals
   V. Asgeirsson, H. Jonsson                     : NEB implementation
   FAccTs GmbH                                   : IRC, NEB, NEB-TS, Multilevel, MM, QM/MM, CI optimization
   S Lehtola, MJT Oliveira, MAL Marques          : LibXC Library


 Your calculation uses the libint2 library for the computation of 2-el integrals
 For citations please refer to: http://libint.valeyev.net

 Your ORCA version has been built with support for libXC version: 4.2.3
 For citations please refer to: https://tddft.org/programs/libxc/

 This ORCA versions uses:
   CBLAS   interface :  Fast vector & matrix operations
   LAPACKE interface :  Fast linear algebra routines
   SCALAPACK package :  Parallel linear algebra routines


Your calculation utilizes the atom-pairwise dispersion correction
with the zero-damping scheme (D30)
Cite in your paper:
S.Grimme, J.Antony, S.Ehrlich and H.Krieg, J.Chem.Phys., 132, (2010), 154104 
   

XCFun DFT library Copyright 2009-2010 Ulf Ekstrom and contributors.
See http://admol.org/xcfun for more information. This is free soft-
ware; see the source code for copying conditions. There is ABSOLUTELY
NO WARRANTY; not even for MERCHANTABILITY or FITNESS FOR A PARTICULAR
PURPOSE. For details see the documentation. Scientific users of this 
library should cite U. Ekstrom, L. Visscher, R. Bast, A. J. Thorvald-
sen and K. Ruud; J.Chem.Theor.Comp. 2010, DOI: 10.1021/ct100117s
XCFun Version 0.99 
----- Orbital basis set information -----
Your calculation utilizes the basis: def2-SVP
   F. Weigend and R. Ahlrichs, Phys. Chem. Chem. Phys. 7, 3297 (2005).

================================================================================
                                        WARNINGS
                       Please study these warnings very carefully!
================================================================================


INFO   : the flag for use of LIBINT has been found!

================================================================================
                                       INPUT FILE
================================================================================
NAME = config_8551.inp
|  1> ! wB97X-D3 SP def2-SVP
|  2> %pal
|  3> nprocs 16
|  4> end
|  5> 
|  6> * xyz 0 1
|  7> S 	 -93.5819 	 56.0594 	 126.161 	 
|  8> C 	 -92.2799 	 54.8844 	 126.028 	 
|  9> C 	 -92.7275 	 53.6504 	 125.597 	 
| 10> C 	 -94.1239 	 53.6593 	 125.447 	 
| 11> C 	 -94.7088 	 54.833 	 125.639 	 
| 12> H 	 -94.7456 	 52.8255 	 125.221 	 
| 13> C 	 -91.8466 	 52.4513 	 125.164 	 
| 14> H 	 -92.6105 	 51.6368 	 125.101 	 
| 15> H 	 -91.2309 	 51.9828 	 125.979 	 
| 16> C 	 -91.1192 	 52.4738 	 123.782 	 
| 17> H 	 -90.1679 	 53.1106 	 123.825 	 
| 18> H 	 -90.678 	 51.502 	 123.613 	 
| 19> C 	 -92.0672 	 52.8754 	 122.638 	 
| 20> H 	 -92.9278 	 52.2238 	 122.481 	 
| 21> H 	 -92.4072 	 53.9027 	 122.78 	 
| 22> H 	 -91.5801 	 52.9002 	 121.682 	 
| 23> S 	 -96.9578 	 55.6658 	 126.971 	 
| 24> C 	 -98.5624 	 55.432 	 126.252 	 
| 25> C 	 -98.4616 	 55.2563 	 124.889 	 
| 26> C 	 -97.111 	 54.9524 	 124.483 	 
| 27> C 	 -96.1703 	 55.0795 	 125.518 	 
| 28> H 	 -99.3008 	 55.355 	 124.226 	 
| 29> C 	 -96.8139 	 54.328 	 123.16 	 
| 30> H 	 -95.7209 	 54.4733 	 122.864 	 
| 31> H 	 -97.548 	 54.8647 	 122.531 	 
| 32> C 	 -97.1026 	 52.7969 	 123.152 	 
| 33> H 	 -98.1155 	 52.5264 	 123.44 	 
| 34> H 	 -96.5183 	 52.3206 	 123.923 	 
| 35> C 	 -96.8566 	 52.1468 	 121.785 	 
| 36> H 	 -95.8906 	 52.4669 	 121.393 	 
| 37> H 	 -97.5296 	 52.4672 	 121.034 	 
| 38> H 	 -96.9636 	 51.045 	 121.835 	 
| 39> H 	 -91.2532 	 55.1916 	 126.06 	 
| 40> H 	 -99.4459 	 55.6946 	 126.827 	 
| 41> *
| 42> 
| 43>                          ****END OF INPUT****
================================================================================

                       ****************************
                       * Single Point Calculation *
                       ****************************

---------------------------------
CARTESIAN COORDINATES (ANGSTROEM)
---------------------------------
  S    -93.581900   56.059400  126.161000
  C    -92.279900   54.884400  126.028000
  C    -92.727500   53.650400  125.597000
  C    -94.123900   53.659300  125.447000
  C    -94.708800   54.833000  125.639000
  H    -94.745600   52.825500  125.221000
  C    -91.846600   52.451300  125.164000
  H    -92.610500   51.636800  125.101000
  H    -91.230900   51.982800  125.979000
  C    -91.119200   52.473800  123.782000
  H    -90.167900   53.110600  123.825000
  H    -90.678000   51.502000  123.613000
  C    -92.067200   52.875400  122.638000
  H    -92.927800   52.223800  122.481000
  H    -92.407200   53.902700  122.780000
  H    -91.580100   52.900200  121.682000
  S    -96.957800   55.665800  126.971000
  C    -98.562400   55.432000  126.252000
  C    -98.461600   55.256300  124.889000
  C    -97.111000   54.952400  124.483000
  C    -96.170300   55.079500  125.518000
  H    -99.300800   55.355000  124.226000
  C    -96.813900   54.328000  123.160000
  H    -95.720900   54.473300  122.864000
  H    -97.548000   54.864700  122.531000
  C    -97.102600   52.796900  123.152000
  H    -98.115500   52.526400  123.440000
  H    -96.518300   52.320600  123.923000
  C    -96.856600   52.146800  121.785000
  H    -95.890600   52.466900  121.393000
  H    -97.529600   52.467200  121.034000
  H    -96.963600   51.045000  121.835000
  H    -91.253200   55.191600  126.060000
  H    -99.445900   55.694600  126.827000

----------------------------
CARTESIAN COORDINATES (A.U.)
----------------------------
  NO LB      ZA    FRAG     MASS         X           Y           Z
   0 S    16.0000    0    32.060  -176.844162  105.936913  238.409739
   1 C     6.0000    0    12.011  -174.383739  103.716485  238.158405
   2 C     6.0000    0    12.011  -175.229580  101.384563  237.343933
   3 C     6.0000    0    12.011  -177.868394  101.401382  237.060474
   4 C     6.0000    0    12.011  -178.973694  103.619353  237.423302
   5 H     1.0000    0     1.008  -179.043236   99.825728  236.633396
   6 C     6.0000    0    12.011  -173.564920   99.118592  236.525682
   7 H     1.0000    0     1.008  -175.008482   97.579410  236.406629
   8 H     1.0000    0     1.008  -172.401416   98.233256  238.065809
   9 C     6.0000    0    12.011  -172.190334   99.161111  233.914080
  10 H     1.0000    0     1.008  -170.392637  100.364489  233.995339
  11 H     1.0000    0     1.008  -171.356586   97.324675  233.594717
  12 C     6.0000    0    12.011  -173.981794   99.920025  231.752234
  13 H     1.0000    0     1.008  -175.608092   98.688680  231.455547
  14 H     1.0000    0     1.008  -174.624301  101.861341  232.020575
  15 H     1.0000    0     1.008  -173.061308   99.966890  229.945655
  16 S    16.0000    0    32.060  -183.223689  105.193117  239.940417
  17 C     6.0000    0    12.011  -186.255943  104.751299  238.581704
  18 C     6.0000    0    12.011  -186.065459  104.419274  236.006007
  19 C     6.0000    0    12.011  -183.513195  103.844986  235.238778
  20 C     6.0000    0    12.011  -181.735529  104.085171  237.194645
  21 H     1.0000    0     1.008  -187.651317  104.605790  234.753119
  22 C     6.0000    0    12.011  -182.951757  102.665041  232.738671
  23 H     1.0000    0     1.008  -180.886286  102.939619  232.179312
  24 H     1.0000    0     1.008  -184.339005  103.679257  231.550033
  25 C     6.0000    0    12.011  -183.497321   99.771682  232.723553
  26 H     1.0000    0     1.008  -185.411424   99.260511  233.267794
  27 H     1.0000    0     1.008  -182.393154   98.871605  234.180532
  28 C     6.0000    0    12.011  -183.032448   98.543171  230.140297
  29 H     1.0000    0     1.008  -181.206973   99.148072  229.399525
  30 H     1.0000    0     1.008  -184.304234   99.148639  228.721113
  31 H     1.0000    0     1.008  -183.234649   96.461071  230.234784
  32 H     1.0000    0     1.008  -172.443557  104.297009  238.218876
  33 H     1.0000    0     1.008  -187.925516  105.247541  239.668296

--------------------------------
INTERNAL COORDINATES (ANGSTROEM)
--------------------------------
 S      0   0   0     0.000000000000     0.00000000     0.00000000
 C      1   0   0     1.758839958609     0.00000000     0.00000000
 C      2   1   0     1.381615995854   112.36126733     0.00000000
 C      3   2   1     1.404461523147   110.47302923   357.04218758
 C      4   3   2     1.325346633904   115.39935733     4.88849945
 H      4   3   2     1.064335158679   126.76123344   186.40687408
 C      3   2   1     1.549617572177   126.45074427   170.11928768
 H      7   3   2     1.118446449322   101.01088153   169.28782037
 H      7   3   2     1.123745407110   115.55731704    66.64277418
 C      7   3   2     1.561903009153   120.05514207   285.43392145
 H     10   7   3     1.145571879019   111.19425888    79.31414316
 H     10   7   3     1.080561742799   108.39607162   187.82132869
 C     10   7   3     1.539065482687   111.99904553   311.51957221
 H     13  10   7     1.090808837515   115.91745105   299.63865763
 H     13  10   7     1.091379535267   109.92534476    64.57004932
 H     13  10   7     1.073227585370   112.86651246   179.70690790
 S      5   4   3     2.743315665395   134.50540420   223.86257925
 C     17   5   4     1.773799481339   120.31706156   282.19665837
 C     18  17   5     1.377969567879   110.58362192   339.39051108
 C     19  18  17     1.442675143613   111.94436503    15.58057557
 C     20  19  18     1.404384527115   113.61661334   351.82426878
 H     19  18  17     1.074042517780   122.80041608   196.50744857
 C     20  19  18     1.492807010300   121.59005935   161.38151199
 H     23  20  19     1.141655416490   111.53597470   161.21424082
 H     23  20  19     1.105708234572    99.72959359    39.02551251
 C     23  20  19     1.558101055773   112.25304806   281.96160670
 H     26  23  20     1.087235328712   114.56629314    55.76526098
 H     26  23  20     1.078289933181   109.26803759   302.23780618
 C     26  23  20     1.533569369152   113.04296358   177.71118163
 H     29  26  23     1.090542988607   109.75958048    47.68198748
 H     29  26  23     1.058104985339   113.72064708   293.32121669
 H     29  26  23     1.108112015998   111.45609480   173.87849911
 H      2   1   3     1.072151449190   121.01127457   166.73395893
 H     18  17   5     1.086349856170   119.29384517   175.11776970

---------------------------
INTERNAL COORDINATES (A.U.)
---------------------------
 S      0   0   0     0.000000000000     0.00000000     0.00000000
 C      1   0   0     3.323725835169     0.00000000     0.00000000
 C      2   1   0     2.610875854409   112.36126733     0.00000000
 C      3   2   1     2.654047644377   110.47302923   357.04218758
 C      4   3   2     2.504542170592   115.39935733     4.88849945
 H      4   3   2     2.011301964607   126.76123344   186.40687408
 C      3   2   1     2.928352823727   126.45074427   170.11928768
 H      7   3   2     2.113557484674   101.01088153   169.28782037
 H      7   3   2     2.123571063689   115.55731704    66.64277418
 C      7   3   2     2.951568935046   120.05514207   285.43392145
 H     10   7   3     2.164817118068   111.19425888    79.31414316
 H     10   7   3     2.041965764682   108.39607162   187.82132869
 C     10   7   3     2.908412264451   111.99904553   311.51957221
 H     13  10   7     2.061329967364   115.91745105   299.63865763
 H     13  10   7     2.062408429821   109.92534476    64.57004932
 H     13  10   7     2.028106215720   112.86651246   179.70690790
 S      5   4   3     5.184115306492   134.50540420   223.86257925
 C     17   5   4     3.351995236223   120.31706156   282.19665837
 C     18  17   5     2.603985104169   110.58362192   339.39051108
 C     19  18  17     2.726260921645   111.94436503    15.58057557
 C     20  19  18     2.653902142964   113.61661334   351.82426878
 H     19  18  17     2.029646214792   122.80041608   196.50744857
 C     20  19  18     2.820996420264   121.59005935   161.38151199
 H     23  20  19     2.157416076473   111.53597470   161.21424082
 H     23  20  19     2.089485747362    99.72959359    39.02551251
 C     23  20  19     2.944384284384   112.25304806   281.96160670
 H     26  23  20     2.054577014390   114.56629314    55.76526098
 H     26  23  20     2.037672666677   109.26803759   302.23780618
 C     26  23  20     2.898026115067   113.04296358   177.71118163
 H     29  26  23     2.060827585735   109.75958048    47.68198748
 H     29  26  23     1.999528643228   113.72064708   293.32121669
 H     29  26  23     2.094028235944   111.45609480   173.87849911
 H      2   1   3     2.026072613056   121.01127457   166.73395893
 H     18  17   5     2.052903713786   119.29384517   175.11776970

---------------------
BASIS SET INFORMATION
---------------------
There are 3 groups of distinct atoms

 Group   1 Type S   : 10s7p1d contracted to 4s3p1d pattern {5311/511/1}
 Group   2 Type C   : 7s4p1d contracted to 3s2p1d pattern {511/31/1}
 Group   3 Type H   : 4s1p contracted to 2s1p pattern {31/1}

Atom   0S    basis set group =>   1
Atom   1C    basis set group =>   2
Atom   2C    basis set group =>   2
Atom   3C    basis set group =>   2
Atom   4C    basis set group =>   2
Atom   5H    basis set group =>   3
Atom   6C    basis set group =>   2
Atom   7H    basis set group =>   3
Atom   8H    basis set group =>   3
Atom   9C    basis set group =>   2
Atom  10H    basis set group =>   3
Atom  11H    basis set group =>   3
Atom  12C    basis set group =>   2
Atom  13H    basis set group =>   3
Atom  14H    basis set group =>   3
Atom  15H    basis set group =>   3
Atom  16S    basis set group =>   1
Atom  17C    basis set group =>   2
Atom  18C    basis set group =>   2
Atom  19C    basis set group =>   2
Atom  20C    basis set group =>   2
Atom  21H    basis set group =>   3
Atom  22C    basis set group =>   2
Atom  23H    basis set group =>   3
Atom  24H    basis set group =>   3
Atom  25C    basis set group =>   2
Atom  26H    basis set group =>   3
Atom  27H    basis set group =>   3
Atom  28C    basis set group =>   2
Atom  29H    basis set group =>   3
Atom  30H    basis set group =>   3
Atom  31H    basis set group =>   3
Atom  32H    basis set group =>   3
Atom  33H    basis set group =>   3


           ************************************************************
           *        Program running with 16 parallel MPI-processes    *
           *              working on a common directory               *
           ************************************************************
------------------------------------------------------------------------------
                           ORCA GTO INTEGRAL CALCULATION
------------------------------------------------------------------------------

                         BASIS SET STATISTICS AND STARTUP INFO

 # of primitive gaussian shells          ...  294
 # of primitive gaussian functions       ...  534
 # of contracted shells                  ...  154
 # of contracted basis functions         ...  322
 Highest angular momentum                ...    2
 Maximum contraction depth               ...    5
 Integral package used                   ... LIBINT
 Integral threshhold            Thresh   ...  1.000e-10
 Primitive cut-off              TCut     ...  1.000e-11


------------------------------ INTEGRAL EVALUATION ----------------------------


 * One electron integrals 
 Pre-screening matrix                    ... done
 Shell pair data                         ... done (   0.003 sec)



           ************************************************************
           *        Program running with 16 parallel MPI-processes    *
           *              working on a common directory               *
           ************************************************************
-------------------------------------------------------------------------------
                                 ORCA SCF
-------------------------------------------------------------------------------

------------
SCF SETTINGS
------------
Hamiltonian:
 Density Functional     Method          .... DFT(GTOs)
 Exchange Functional    Exchange        .... WB97X-D3
 Correlation Functional Correlation     .... WB97X-D3
 Gradients option       PostSCFGGA      .... off
 Hybrid DFT is turned on
   Fraction HF Exchange ScalHFX         ....  0.195728
   Scaling of DF-GGA-X  ScalDFX         ....  0.000000
   Scaling of DF-GGA-C  ScalDFC         ....  1.000000
   Scaling of DF-LDA-C  ScalLDAC        ....  1.000000
   Perturbative correction              ....  0.000000
   Density functional embedding theory  .... OFF
 Long-range corrected/Screened/Range-Separated Hybrid DFT is turned on
   Amount of maximum screened exact exchange              ....  0.804272
   Range separation parameter mu (erf(mu*r12)/r12)        ....  0.250000


General Settings:
 Integral files         IntName         .... config_8551
 Hartree-Fock type      HFTyp           .... RHF
 Total Charge           Charge          ....    0
 Multiplicity           Mult            ....    1
 Number of Electrons    NEL             ....  134
 Basis Dimension        Dim             ....  322
 Nuclear Repulsion      ENuc            ....   1298.0394436298 Eh

Convergence Acceleration:
 DIIS                   CNVDIIS         .... on
   Start iteration      DIISMaxIt       ....    12
   Startup error        DIISStart       ....  0.200000
   # of expansion vecs  DIISMaxEq       ....     5
   Bias factor          DIISBfac        ....   1.050
   Max. coefficient     DIISMaxC        ....  10.000
 Newton-Raphson         CNVNR           .... off
 SOSCF                  CNVSOSCF        .... on
   Start iteration      SOSCFMaxIt      ....   150
   Startup grad/error   SOSCFStart      ....  0.003300
 Level Shifting         CNVShift        .... on
   Level shift para.    LevelShift      ....    0.2500
   Turn off err/grad.   ShiftErr        ....    0.0010
 Zerner damping         CNVZerner       .... off
 Static damping         CNVDamp         .... on
   Fraction old density DampFac         ....    0.7000
   Max. Damping (<1)    DampMax         ....    0.9800
   Min. Damping (>=0)   DampMin         ....    0.0000
   Turn off err/grad.   DampErr         ....    0.1000
 Fernandez-Rico         CNVRico         .... off

SCF Procedure:
 Maximum # iterations   MaxIter         ....   125
 SCF integral mode      SCFMode         .... Direct
   Integral package                     .... LIBINT
 Reset frequency        DirectResetFreq ....    20
 Integral Threshold     Thresh          ....  1.000e-10 Eh
 Primitive CutOff       TCut            ....  1.000e-11 Eh

Convergence Tolerance:
 Convergence Check Mode ConvCheckMode   .... Total+1el-Energy
 Convergence forced     ConvForced      .... 0
 Energy Change          TolE            ....  1.000e-06 Eh
 1-El. energy change                    ....  1.000e-03 Eh
 Orbital Gradient       TolG            ....  5.000e-05
 Orbital Rotation angle TolX            ....  5.000e-05
 DIIS Error             TolErr          ....  1.000e-06


Diagonalization of the overlap matrix:
Smallest eigenvalue                        ... 6.551e-04
Time for diagonalization                   ...    0.016 sec
Threshold for overlap eigenvalues          ... 1.000e-08
Number of eigenvalues below threshold      ... 0
Time for construction of square roots      ...    0.029 sec
Total time needed                          ...    0.046 sec

-------------------
DFT GRID GENERATION
-------------------

General Integration Accuracy     IntAcc      ...  4.340
Radial Grid Type                 RadialGrid  ... Gauss-Chebyshev
Angular Grid (max. acc.)         AngularGrid ... Lebedev-110
Angular grid pruning method      GridPruning ... 3 (G Style)
Weight generation scheme         WeightScheme... Becke
Basis function cutoff            BFCut       ...    1.0000e-10
Integration weight cutoff        WCut        ...    1.0000e-14
Grids for H and He will be reduced by one unit

# of grid points (after initial pruning)     ...  41088 (   0.0 sec)
# of grid points (after weights+screening)   ...  36859 (   0.0 sec)
nearest neighbour list constructed           ...    0.0 sec
Grid point re-assignment to atoms done       ...    0.0 sec
Grid point division into batches done        ...    0.0 sec
Reduced shell lists constructed in    0.1 sec

Total number of grid points                  ...    36859
Total number of batches                      ...      593
Average number of points per batch           ...       62
Average number of grid points per atom       ...     1084
Average number of shells per batch           ...    74.33 (48.27%)
Average number of basis functions per batch  ...   146.74 (45.57%)
Average number of large shells per batch     ...    46.54 (62.61%)
Average number of large basis fcns per batch ...    96.08 (65.47%)
Maximum spatial batch extension              ...  15.51, 14.91, 18.30 au
Average spatial batch extension              ...   0.21,  0.24,  0.27 au

Time for grid setup =    0.233 sec

------------------------------
INITIAL GUESS: MODEL POTENTIAL
------------------------------
Loading Hartree-Fock densities                     ... done
Calculating cut-offs                               ... done
Setting up the integral package                    ... done
Initializing the effective Hamiltonian             ... done
Starting the Coulomb interaction                   ... done (   0.0 sec)
Reading the grid                                   ... done
Mapping shells                                     ... done
Starting the XC term evaluation                    ... done (   0.0 sec)
  promolecular density results
     # of electrons  =    133.982653976
     EX              =   -126.695126693
     EC              =     -4.614685352
     EX+EC           =   -131.309812045
Transforming the Hamiltonian                       ... done (   0.0 sec)
Diagonalizing the Hamiltonian                      ... done (   0.0 sec)
Back transforming the eigenvectors                 ... done (   0.0 sec)
Now organizing SCF variables                       ... done
                      ------------------
                      INITIAL GUESS DONE (   0.4 sec)
                      ------------------
--------------
SCF ITERATIONS
--------------
ITER       Energy         Delta-E        Max-DP      RMS-DP      [F,P]     Damp
               ***  Starting incremental Fock matrix formation  ***
  0  -1339.4242357596   0.000000000000 0.06561288  0.00160307  0.1615358 0.7000
  1  -1339.6136887446  -0.189452984978 0.04412392  0.00116260  0.0979991 0.7000
                               ***Turning on DIIS***
  2  -1339.7044971916  -0.090808447020 0.09233825  0.00217991  0.0510278 0.0000
  3  -1339.8414532546  -0.136956063008 0.04378409  0.00100195  0.0394387 0.0000
  4  -1339.8714864584  -0.030033203758 0.00809189  0.00020110  0.0079951 0.0000
                      *** Initiating the SOSCF procedure ***
                           *** Shutting down DIIS ***
                      *** Re-Reading the Fockian *** 
                      *** Removing any level shift *** 
ITER      Energy       Delta-E        Grad      Rot      Max-DP    RMS-DP
  5  -1339.87240712  -0.0009206595  0.001496  0.001496  0.003100  0.000102
               *** Restarting incremental Fock matrix formation ***
  6  -1339.87259143  -0.0001843127  0.001173  0.003153  0.002643  0.000065
  7  -1339.87265410  -0.0000626741  0.000731  0.004252  0.003555  0.000066
  8  -1339.87267138  -0.0000172749  0.000303  0.000758  0.000859  0.000022
  9  -1339.87267601  -0.0000046320  0.000129  0.000333  0.000324  0.000009
 10  -1339.87267646  -0.0000004498  0.000071  0.000190  0.000168  0.000004
                 **** Energy Check signals convergence ****
              ***Rediagonalizing the Fockian in SOSCF/NRSCF***

               *****************************************************
               *                     SUCCESS                       *
               *           SCF CONVERGED AFTER  11 CYCLES          *
               *****************************************************

Setting up the final grid:

General Integration Accuracy     IntAcc      ...  4.670
Radial Grid Type                 RadialGrid  ... Gauss-Chebyshev
Angular Grid (max. acc.)         AngularGrid ... Lebedev-302
Angular grid pruning method      GridPruning ... 3 (G Style)
Weight generation scheme         WeightScheme... Becke
Basis function cutoff            BFCut       ...    1.0000e-10
Integration weight cutoff        WCut        ...    1.0000e-14
Grids for H and He will be reduced by one unit

# of grid points (after initial pruning)     ... 161752 (   0.0 sec)
# of grid points (after weights+screening)   ... 142101 (   0.2 sec)
nearest neighbour list constructed           ...    0.0 sec
Grid point re-assignment to atoms done       ...    0.0 sec
Grid point division into batches done        ...    0.5 sec
Reduced shell lists constructed in    0.6 sec

Total number of grid points                  ...   142101
Total number of batches                      ...     2235
Average number of points per batch           ...       63
Average number of grid points per atom       ...     4179
Average number of shells per batch           ...    67.57 (43.87%)
Average number of basis functions per batch  ...   133.16 (41.35%)
Average number of large shells per batch     ...    41.41 (61.29%)
Average number of large basis fcns per batch ...    85.14 (63.94%)
Maximum spatial batch extension              ...  13.98, 13.70, 15.16 au
Average spatial batch extension              ...   0.15,  0.15,  0.16 au

Final grid set up in    1.1 sec
Final integration                            ... done (   0.3 sec)
Change in XC energy                          ...     0.007562535
Integrated number of electrons               ...   134.000138979
Previous integrated no of electrons          ...   133.992362693

----------------
TOTAL SCF ENERGY
----------------

Total Energy       :        -1339.86511418 Eh          -36459.58333 eV

Components:
Nuclear Repulsion  :         1298.03944363 Eh           35321.44897 eV
Electronic Energy  :        -2637.90455781 Eh          -71781.03230 eV
One Electron Energy:        -4412.77119782 Eh         -120077.60892 eV
Two Electron Energy:         1774.86664001 Eh           48296.57663 eV

Virial components:
Potential Energy   :        -2671.27935830 Eh          -72689.20679 eV
Kinetic Energy     :         1331.41424413 Eh           36229.62346 eV
Virial Ratio       :            2.00634729


DFT components:
N(Alpha)           :       67.000069489688 electrons
N(Beta)            :       67.000069489688 electrons
N(Total)           :      134.000138979376 electrons
E(XC)              :      -94.229960898974 Eh       
DFET-embed. en.    :        0.000000000000 Eh       

---------------
SCF CONVERGENCE
---------------

  Last Energy change         ...   -2.4991e-07  Tolerance :   1.0000e-06
  Last MAX-Density change    ...    3.3263e-05  Tolerance :   1.0000e-05
  Last RMS-Density change    ...    6.7445e-07  Tolerance :   1.0000e-06
  Last Orbital Gradient      ...    7.8252e-06  Tolerance :   5.0000e-05
  Last Orbital Rotation      ...    2.5674e-05  Tolerance :   5.0000e-05

             **** THE GBW FILE WAS UPDATED (config_8551.gbw) ****
             **** DENSITY FILE WAS UPDATED (config_8551.scfp) ****
             **** ENERGY FILE WAS UPDATED (config_8551.en.tmp) ****
             **** THE GBW FILE WAS UPDATED (config_8551.gbw) ****
             **** DENSITY FILE WAS UPDATED (config_8551.scfp) ****
----------------
ORBITAL ENERGIES
----------------

  NO   OCC          E(Eh)            E(eV) 
   0   2.0000     -88.966787     -2420.9094 
   1   2.0000     -88.960293     -2420.7326 
   2   2.0000     -10.327092      -281.0145 
   3   2.0000     -10.324352      -280.9399 
   4   2.0000     -10.320304      -280.8298 
   5   2.0000     -10.313537      -280.6456 
   6   2.0000     -10.304637      -280.4034 
   7   2.0000     -10.302330      -280.3407 
   8   2.0000     -10.302223      -280.3377 
   9   2.0000     -10.298408      -280.2339 
  10   2.0000     -10.297985      -280.2224 
  11   2.0000     -10.297806      -280.2175 
  12   2.0000     -10.286708      -279.9156 
  13   2.0000     -10.283830      -279.8372 
  14   2.0000     -10.276751      -279.6446 
  15   2.0000     -10.276712      -279.6436 
  16   2.0000      -8.081713      -219.9146 
  17   2.0000      -8.075039      -219.7330 
  18   2.0000      -6.040200      -164.3622 
  19   2.0000      -6.036272      -164.2553 
  20   2.0000      -6.033628      -164.1834 
  21   2.0000      -6.032406      -164.1501 
  22   2.0000      -6.029556      -164.0726 
  23   2.0000      -6.025711      -163.9679 
  24   2.0000      -1.009020       -27.4568 
  25   2.0000      -0.984344       -26.7854 
  26   2.0000      -0.907753       -24.7012 
  27   2.0000      -0.903263       -24.5790 
  28   2.0000      -0.867142       -23.5961 
  29   2.0000      -0.852302       -23.1923 
  30   2.0000      -0.847648       -23.0657 
  31   2.0000      -0.816236       -22.2109 
  32   2.0000      -0.781877       -21.2760 
  33   2.0000      -0.767985       -20.8979 
  34   2.0000      -0.706708       -19.2305 
  35   2.0000      -0.704961       -19.1830 
  36   2.0000      -0.691252       -18.8099 
  37   2.0000      -0.665668       -18.1137 
  38   2.0000      -0.646726       -17.5983 
  39   2.0000      -0.615165       -16.7395 
  40   2.0000      -0.593625       -16.1534 
  41   2.0000      -0.568172       -15.4607 
  42   2.0000      -0.560958       -15.2644 
  43   2.0000      -0.547886       -14.9087 
  44   2.0000      -0.538283       -14.6474 
  45   2.0000      -0.524767       -14.2796 
  46   2.0000      -0.520000       -14.1499 
  47   2.0000      -0.510310       -13.8862 
  48   2.0000      -0.505984       -13.7685 
  49   2.0000      -0.491794       -13.3824 
  50   2.0000      -0.489047       -13.3076 
  51   2.0000      -0.479683       -13.0528 
  52   2.0000      -0.467743       -12.7279 
  53   2.0000      -0.463839       -12.6217 
  54   2.0000      -0.455753       -12.4017 
  55   2.0000      -0.451496       -12.2858 
  56   2.0000      -0.442695       -12.0463 
  57   2.0000      -0.440972       -11.9995 
  58   2.0000      -0.437167       -11.8959 
  59   2.0000      -0.431976       -11.7547 
  60   2.0000      -0.420718       -11.4483 
  61   2.0000      -0.414853       -11.2887 
  62   2.0000      -0.407906       -11.0997 
  63   2.0000      -0.347489        -9.4557 
  64   2.0000      -0.334991        -9.1156 
  65   2.0000      -0.322666        -8.7802 
  66   2.0000      -0.297192        -8.0870 
  67   0.0000       0.037019         1.0073 
  68   0.0000       0.060720         1.6523 
  69   0.0000       0.107748         2.9320 
  70   0.0000       0.117521         3.1979 
  71   0.0000       0.129045         3.5115 
  72   0.0000       0.135908         3.6983 
  73   0.0000       0.142638         3.8814 
  74   0.0000       0.155685         4.2364 
  75   0.0000       0.162426         4.4198 
  76   0.0000       0.168865         4.5950 
  77   0.0000       0.179167         4.8754 
  78   0.0000       0.181545         4.9401 
  79   0.0000       0.193684         5.2704 
  80   0.0000       0.200603         5.4587 
  81   0.0000       0.204562         5.5664 
  82   0.0000       0.213201         5.8015 
  83   0.0000       0.221885         6.0378 
  84   0.0000       0.223607         6.0847 
  85   0.0000       0.228908         6.2289 
  86   0.0000       0.233083         6.3425 
  87   0.0000       0.236209         6.4276 
  88   0.0000       0.244721         6.6592 
  89   0.0000       0.248752         6.7689 
  90   0.0000       0.258109         7.0235 
  91   0.0000       0.275396         7.4939 
  92   0.0000       0.291567         7.9339 
  93   0.0000       0.292323         7.9545 
  94   0.0000       0.315706         8.5908 
  95   0.0000       0.321139         8.7386 
  96   0.0000       0.334329         9.0976 
  97   0.0000       0.339082         9.2269 
  98   0.0000       0.356752         9.7077 
  99   0.0000       0.367105         9.9894 
 100   0.0000       0.385185        10.4814 
 101   0.0000       0.391918        10.6646 
 102   0.0000       0.412129        11.2146 
 103   0.0000       0.420183        11.4338 
 104   0.0000       0.435203        11.8425 
 105   0.0000       0.454253        12.3609 
 106   0.0000       0.464158        12.6304 
 107   0.0000       0.466898        12.7049 
 108   0.0000       0.485285        13.2053 
 109   0.0000       0.497954        13.5500 
 110   0.0000       0.498721        13.5709 
 111   0.0000       0.502559        13.6753 
 112   0.0000       0.518734        14.1155 
 113   0.0000       0.521597        14.1934 
 114   0.0000       0.528031        14.3684 
 115   0.0000       0.531178        14.4541 
 116   0.0000       0.543648        14.7934 
 117   0.0000       0.555920        15.1274 
 118   0.0000       0.561242        15.2722 
 119   0.0000       0.567642        15.4463 
 120   0.0000       0.569939        15.5088 
 121   0.0000       0.593637        16.1537 
 122   0.0000       0.598696        16.2913 
 123   0.0000       0.603025        16.4092 
 124   0.0000       0.616230        16.7685 
 125   0.0000       0.630753        17.1637 
 126   0.0000       0.636189        17.3116 
 127   0.0000       0.648355        17.6426 
 128   0.0000       0.657363        17.8877 
 129   0.0000       0.660270        17.9668 
 130   0.0000       0.669577        18.2201 
 131   0.0000       0.679781        18.4978 
 132   0.0000       0.691359        18.8128 
 133   0.0000       0.702124        19.1058 
 134   0.0000       0.705097        19.1867 
 135   0.0000       0.709319        19.3015 
 136   0.0000       0.715417        19.4675 
 137   0.0000       0.721973        19.6459 
 138   0.0000       0.726197        19.7608 
 139   0.0000       0.737430        20.0665 
 140   0.0000       0.742066        20.1926 
 141   0.0000       0.750134        20.4122 
 142   0.0000       0.751656        20.4536 
 143   0.0000       0.755473        20.5575 
 144   0.0000       0.761833        20.7305 
 145   0.0000       0.767655        20.8890 
 146   0.0000       0.770873        20.9765 
 147   0.0000       0.777214        21.1491 
 148   0.0000       0.779584        21.2136 
 149   0.0000       0.784017        21.3342 
 150   0.0000       0.786937        21.4136 
 151   0.0000       0.793309        21.5870 
 152   0.0000       0.793833        21.6013 
 153   0.0000       0.799975        21.7684 
 154   0.0000       0.804485        21.8911 
 155   0.0000       0.812218        22.1016 
 156   0.0000       0.818204        22.2645 
 157   0.0000       0.819380        22.2965 
 158   0.0000       0.823016        22.3954 
 159   0.0000       0.830001        22.5855 
 160   0.0000       0.837566        22.7913 
 161   0.0000       0.842784        22.9333 
 162   0.0000       0.853168        23.2159 
 163   0.0000       0.860163        23.4062 
 164   0.0000       0.867582        23.6081 
 165   0.0000       0.871685        23.7198 
 166   0.0000       0.885898        24.1065 
 167   0.0000       0.896198        24.3868 
 168   0.0000       0.902017        24.5451 
 169   0.0000       0.904916        24.6240 
 170   0.0000       0.912901        24.8413 
 171   0.0000       0.923897        25.1405 
 172   0.0000       0.933226        25.3944 
 173   0.0000       0.941532        25.6204 
 174   0.0000       0.951785        25.8994 
 175   0.0000       0.972530        26.4639 
 176   0.0000       0.978113        26.6158 
 177   0.0000       0.997162        27.1341 
 178   0.0000       1.018264        27.7084 
 179   0.0000       1.040678        28.3183 
 180   0.0000       1.054246        28.6875 
 181   0.0000       1.067130        29.0381 
 182   0.0000       1.090033        29.6613 
 183   0.0000       1.102887        30.0111 
 184   0.0000       1.119167        30.4541 
 185   0.0000       1.137727        30.9591 
 186   0.0000       1.154892        31.4262 
 187   0.0000       1.161249        31.5992 
 188   0.0000       1.165850        31.7244 
 189   0.0000       1.185293        32.2535 
 190   0.0000       1.199850        32.6496 
 191   0.0000       1.217271        33.1236 
 192   0.0000       1.246011        33.9057 
 193   0.0000       1.259267        34.2664 
 194   0.0000       1.271585        34.6016 
 195   0.0000       1.283320        34.9209 
 196   0.0000       1.312045        35.7026 
 197   0.0000       1.328743        36.1569 
 198   0.0000       1.340253        36.4701 
 199   0.0000       1.363941        37.1147 
 200   0.0000       1.381147        37.5829 
 201   0.0000       1.398920        38.0666 
 202   0.0000       1.426341        38.8127 
 203   0.0000       1.434954        39.0471 
 204   0.0000       1.447714        39.3943 
 205   0.0000       1.473957        40.1084 
 206   0.0000       1.479641        40.2631 
 207   0.0000       1.494047        40.6551 
 208   0.0000       1.532364        41.6977 
 209   0.0000       1.562646        42.5218 
 210   0.0000       1.587785        43.2058 
 211   0.0000       1.627950        44.2988 
 212   0.0000       1.646277        44.7975 
 213   0.0000       1.663021        45.2531 
 214   0.0000       1.665734        45.3269 
 215   0.0000       1.671750        45.4906 
 216   0.0000       1.692408        46.0527 
 217   0.0000       1.714669        46.6585 
 218   0.0000       1.744496        47.4702 
 219   0.0000       1.760182        47.8970 
 220   0.0000       1.776388        48.3380 
 221   0.0000       1.784960        48.5712 
 222   0.0000       1.796563        48.8870 
 223   0.0000       1.816779        49.4371 
 224   0.0000       1.827168        49.7198 
 225   0.0000       1.828231        49.7487 
 226   0.0000       1.836284        49.9678 
 227   0.0000       1.843270        50.1579 
 228   0.0000       1.860435        50.6250 
 229   0.0000       1.866141        50.7803 
 230   0.0000       1.868646        50.8484 
 231   0.0000       1.869784        50.8794 
 232   0.0000       1.885440        51.3054 
 233   0.0000       1.895239        51.5721 
 234   0.0000       1.900906        51.7263 
 235   0.0000       1.910111        51.9768 
 236   0.0000       1.912594        52.0443 
 237   0.0000       1.923035        52.3284 
 238   0.0000       1.926902        52.4337 
 239   0.0000       1.944926        52.9241 
 240   0.0000       1.955849        53.2214 
 241   0.0000       1.969839        53.6021 
 242   0.0000       1.973957        53.7141 
 243   0.0000       1.977486        53.8101 
 244   0.0000       1.988188        54.1014 
 245   0.0000       2.000256        54.4297 
 246   0.0000       2.005349        54.5683 
 247   0.0000       2.013254        54.7834 
 248   0.0000       2.017226        54.8915 
 249   0.0000       2.019537        54.9544 
 250   0.0000       2.029445        55.2240 
 251   0.0000       2.034285        55.3557 
 252   0.0000       2.051966        55.8368 
 253   0.0000       2.064541        56.1790 
 254   0.0000       2.074508        56.4502 
 255   0.0000       2.092751        56.9466 
 256   0.0000       2.098620        57.1064 
 257   0.0000       2.114912        57.5497 
 258   0.0000       2.128495        57.9193 
 259   0.0000       2.133796        58.0635 
 260   0.0000       2.162939        58.8566 
 261   0.0000       2.163934        58.8836 
 262   0.0000       2.189481        59.5788 
 263   0.0000       2.206234        60.0347 
 264   0.0000       2.231649        60.7263 
 265   0.0000       2.234166        60.7947 
 266   0.0000       2.259000        61.4705 
 267   0.0000       2.262348        61.5616 
 268   0.0000       2.286911        62.2300 
 269   0.0000       2.303637        62.6852 
 270   0.0000       2.315376        63.0046 
 271   0.0000       2.341527        63.7162 
 272   0.0000       2.379678        64.7543 
 273   0.0000       2.394020        65.1446 
 274   0.0000       2.407943        65.5235 
 275   0.0000       2.425614        66.0043 
 276   0.0000       2.431125        66.1543 
 277   0.0000       2.439374        66.3787 
 278   0.0000       2.458567        66.9010 
 279   0.0000       2.486579        67.6632 
 280   0.0000       2.500808        68.0504 
 281   0.0000       2.513670        68.4005 
 282   0.0000       2.516917        68.4888 
 283   0.0000       2.519440        68.5575 
 284   0.0000       2.541509        69.1580 
 285   0.0000       2.548793        69.3562 
 286   0.0000       2.568461        69.8914 
 287   0.0000       2.589099        70.4530 
 288   0.0000       2.604823        70.8808 
 289   0.0000       2.609631        71.0117 
 290   0.0000       2.636534        71.7437 
 291   0.0000       2.636878        71.7531 
 292   0.0000       2.664309        72.4995 
 293   0.0000       2.688930        73.1695 
 294   0.0000       2.697210        73.3948 
 295   0.0000       2.732565        74.3569 
 296   0.0000       2.749711        74.8234 
 297   0.0000       2.759193        75.0814 
 298   0.0000       2.811511        76.5051 
 299   0.0000       2.816930        76.6526 
 300   0.0000       2.840552        77.2953 
 301   0.0000       2.852568        77.6223 
 302   0.0000       2.883911        78.4752 
 303   0.0000       2.915602        79.3376 
 304   0.0000       2.948790        80.2406 
 305   0.0000       2.962280        80.6077 
 306   0.0000       2.997580        81.5683 
 307   0.0000       3.002767        81.7094 
 308   0.0000       3.014320        82.0238 
 309   0.0000       3.033947        82.5579 
 310   0.0000       3.063003        83.3486 
 311   0.0000       3.079060        83.7855 
 312   0.0000       3.106544        84.5334 
 313   0.0000       3.123366        84.9911 
 314   0.0000       3.130644        85.1892 
 315   0.0000       3.165648        86.1417 
 316   0.0000       3.179145        86.5089 
 317   0.0000       3.182769        86.6076 
 318   0.0000       3.205351        87.2220 
 319   0.0000       3.255577        88.5887 
 320   0.0000       3.410609        92.8074 
 321   0.0000       3.473790        94.5266 

                    ********************************
                    * MULLIKEN POPULATION ANALYSIS *
                    ********************************

-----------------------
MULLIKEN ATOMIC CHARGES
-----------------------
   0 S :    0.111198
   1 C :   -0.120088
   2 C :   -0.064167
   3 C :    0.028145
   4 C :   -0.125975
   5 H :   -0.007248
   6 C :    0.029302
   7 H :    0.013905
   8 H :    0.045063
   9 C :   -0.055626
  10 H :    0.036330
  11 H :    0.025365
  12 C :   -0.053682
  13 H :    0.033168
  14 H :    0.046077
  15 H :    0.024904
  16 S :    0.086507
  17 C :   -0.100272
  18 C :   -0.018418
  19 C :   -0.036636
  20 C :   -0.169815
  21 H :    0.021971
  22 C :    0.029435
  23 H :    0.050728
  24 H :    0.027963
  25 C :   -0.054887
  26 H :    0.017768
  27 H :    0.014479
  28 C :   -0.025584
  29 H :    0.021163
  30 H :    0.018343
  31 H :    0.040886
  32 H :    0.045381
  33 H :    0.064316
Sum of atomic charges:    0.0000000

--------------------------------
MULLIKEN REDUCED ORBITAL CHARGES
--------------------------------
  0 S s       :     5.847813  s :     5.847813
      pz      :     3.632578  p :     9.935866
      px      :     2.974446
      py      :     3.328842
      dz2     :     0.012486  d :     0.105122
      dxz     :     0.022116
      dyz     :     0.011836
      dx2y2   :     0.013072
      dxy     :     0.045613
  1 C s       :     3.191066  s :     3.191066
      pz      :     1.098977  p :     2.894651
      px      :     0.870492
      py      :     0.925183
      dz2     :     0.004077  d :     0.034371
      dxz     :     0.003153
      dyz     :     0.006389
      dx2y2   :     0.008260
      dxy     :     0.012492
  2 C s       :     3.069467  s :     3.069467
      pz      :     1.000505  p :     2.950518
      px      :     0.976139
      py      :     0.973875
      dz2     :     0.004442  d :     0.044182
      dxz     :     0.007179
      dyz     :     0.006761
      dx2y2   :     0.014693
      dxy     :     0.011105
  3 C s       :     3.191328  s :     3.191328
      pz      :     1.001403  p :     2.742371
      px      :     0.875921
      py      :     0.865047
      dz2     :     0.002875  d :     0.038156
      dxz     :     0.006512
      dyz     :     0.005410
      dx2y2   :     0.010943
      dxy     :     0.012417
  4 C s       :     3.026462  s :     3.026462
      pz      :     1.080539  p :     3.052294
      px      :     1.000055
      py      :     0.971700
      dz2     :     0.004351  d :     0.047219
      dxz     :     0.005683
      dyz     :     0.008648
      dx2y2   :     0.011914
      dxy     :     0.016622
  5 H s       :     0.981798  s :     0.981798
      pz      :     0.006025  p :     0.025450
      px      :     0.007913
      py      :     0.011513
  6 C s       :     2.998345  s :     2.998345
      pz      :     0.984037  p :     2.938945
      px      :     0.992342
      py      :     0.962565
      dz2     :     0.007247  d :     0.033409
      dxz     :     0.007498
      dyz     :     0.005717
      dx2y2   :     0.002460
      dxy     :     0.010486
  7 H s       :     0.963058  s :     0.963058
      pz      :     0.004440  p :     0.023038
      px      :     0.009203
      py      :     0.009394
  8 H s       :     0.933100  s :     0.933100
      pz      :     0.008453  p :     0.021836
      px      :     0.007466
      py      :     0.005918
  9 C s       :     3.058585  s :     3.058585
      pz      :     0.950753  p :     2.961878
      px      :     0.985274
      py      :     1.025851
      dz2     :     0.010091  d :     0.035163
      dxz     :     0.008268
      dyz     :     0.003703
      dx2y2   :     0.004540
      dxy     :     0.008561
 10 H s       :     0.943267  s :     0.943267
      pz      :     0.002859  p :     0.020403
      px      :     0.009657
      py      :     0.007887
 11 H s       :     0.951436  s :     0.951436
      pz      :     0.004014  p :     0.023200
      px      :     0.006337
      py      :     0.012848
 12 C s       :     3.009021  s :     3.009021
      pz      :     0.984449  p :     3.016571
      px      :     1.003522
      py      :     1.028600
      dz2     :     0.007938  d :     0.028089
      dxz     :     0.006961
      dyz     :     0.001942
      dx2y2   :     0.004425
      dxy     :     0.006822
 13 H s       :     0.943127  s :     0.943127
      pz      :     0.004716  p :     0.023705
      px      :     0.010776
      py      :     0.008213
 14 H s       :     0.929822  s :     0.929822
      pz      :     0.005057  p :     0.024101
      px      :     0.005662
      py      :     0.013382
 15 H s       :     0.950430  s :     0.950430
      pz      :     0.011935  p :     0.024666
      px      :     0.006901
      py      :     0.005830
 16 S s       :     5.850342  s :     5.850342
      pz      :     3.342467  p :     9.959132
      px      :     2.994424
      py      :     3.622240
      dz2     :     0.019595  d :     0.104019
      dxz     :     0.031947
      dyz     :     0.013911
      dx2y2   :     0.017397
      dxy     :     0.021170
 17 C s       :     3.172335  s :     3.172335
      pz      :     0.958292  p :     2.893244
      px      :     0.869142
      py      :     1.065810
      dz2     :     0.007618  d :     0.034693
      dxz     :     0.011973
      dyz     :     0.006743
      dx2y2   :     0.004327
      dxy     :     0.004031
 18 C s       :     3.175378  s :     3.175378
      pz      :     0.876215  p :     2.809018
      px      :     0.909659
      py      :     1.023144
      dz2     :     0.008791  d :     0.034022
      dxz     :     0.010308
      dyz     :     0.006069
      dx2y2   :     0.004687
      dxy     :     0.004167
 19 C s       :     3.066913  s :     3.066913
      pz      :     0.989820  p :     2.925976
      px      :     0.953833
      py      :     0.982323
      dz2     :     0.010250  d :     0.043748
      dxz     :     0.013023
      dyz     :     0.007011
      dx2y2   :     0.006132
      dxy     :     0.007331
 20 C s       :     3.088746  s :     3.088746
      pz      :     0.947404  p :     3.038710
      px      :     1.004091
      py      :     1.087215
      dz2     :     0.009446  d :     0.042358
      dxz     :     0.013786
      dyz     :     0.007124
      dx2y2   :     0.006468
      dxy     :     0.005534
 21 H s       :     0.953684  s :     0.953684
      pz      :     0.008021  p :     0.024346
      px      :     0.010887
      py      :     0.005438
 22 C s       :     3.003396  s :     3.003396
      pz      :     1.004548  p :     2.932594
      px      :     0.981499
      py      :     0.946547
      dz2     :     0.006960  d :     0.034575
      dxz     :     0.005630
      dyz     :     0.008259
      dx2y2   :     0.008103
      dxy     :     0.005623
 23 H s       :     0.928859  s :     0.928859
      pz      :     0.003905  p :     0.020413
      px      :     0.013104
      py      :     0.003404
 24 H s       :     0.949308  s :     0.949308
      pz      :     0.008235  p :     0.022729
      px      :     0.008127
      py      :     0.006367
 25 C s       :     3.036360  s :     3.036360
      pz      :     0.996332  p :     2.982373
      px      :     1.038850
      py      :     0.947191
      dz2     :     0.007419  d :     0.036154
      dxz     :     0.007027
      dyz     :     0.008197
      dx2y2   :     0.007926
      dxy     :     0.005584
 26 H s       :     0.959028  s :     0.959028
      pz      :     0.005400  p :     0.023204
      px      :     0.013754
      py      :     0.004050
 27 H s       :     0.962165  s :     0.962165
      pz      :     0.009165  p :     0.023357
      px      :     0.008580
      py      :     0.005612
 28 C s       :     2.990749  s :     2.990749
      pz      :     0.974443  p :     3.006148
      px      :     1.037973
      py      :     0.993732
      dz2     :     0.006184  d :     0.028687
      dxz     :     0.008944
      dyz     :     0.004309
      dx2y2   :     0.006901
      dxy     :     0.002350
 29 H s       :     0.954737  s :     0.954737
      pz      :     0.005729  p :     0.024100
      px      :     0.013120
      py      :     0.005251
 30 H s       :     0.956279  s :     0.956279
      pz      :     0.009325  p :     0.025377
      px      :     0.009741
      py      :     0.006312
 31 H s       :     0.936387  s :     0.936387
      pz      :     0.004084  p :     0.022727
      px      :     0.004726
      py      :     0.013917
 32 H s       :     0.930531  s :     0.930531
      pz      :     0.005495  p :     0.024088
      px      :     0.014450
      py      :     0.004143
 33 H s       :     0.912471  s :     0.912471
      pz      :     0.006558  p :     0.023213
      px      :     0.010980
      py      :     0.005674


                     *******************************
                     * LOEWDIN POPULATION ANALYSIS *
                     *******************************

----------------------
LOEWDIN ATOMIC CHARGES
----------------------
   0 S :    0.400231
   1 C :   -0.181404
   2 C :   -0.065462
   3 C :   -0.063885
   4 C :   -0.193580
   5 H :    0.027680
   6 C :   -0.042852
   7 H :    0.031178
   8 H :    0.037793
   9 C :   -0.041220
  10 H :    0.029521
  11 H :    0.023047
  12 C :   -0.068746
  13 H :    0.025556
  14 H :    0.029909
  15 H :    0.024536
  16 S :    0.387580
  17 C :   -0.171906
  18 C :   -0.067254
  19 C :   -0.059086
  20 C :   -0.195202
  21 H :    0.031455
  22 C :   -0.035748
  23 H :    0.040796
  24 H :    0.033833
  25 C :   -0.037236
  26 H :    0.022985
  27 H :    0.017952
  28 C :   -0.064783
  29 H :    0.022184
  30 H :    0.018978
  31 H :    0.031466
  32 H :    0.023752
  33 H :    0.027930

-------------------------------
LOEWDIN REDUCED ORBITAL CHARGES
-------------------------------
  0 S s       :     5.511809  s :     5.511809
      pz      :     3.599842  p :     9.958332
      px      :     2.989117
      py      :     3.369374
      dz2     :     0.015106  d :     0.129627
      dxz     :     0.027652
      dyz     :     0.012330
      dx2y2   :     0.015032
      dxy     :     0.059508
  1 C s       :     2.930079  s :     2.930079
      pz      :     1.100915  p :     3.169764
      px      :     1.024145
      py      :     1.044704
      dz2     :     0.007553  d :     0.081562
      dxz     :     0.005815
      dyz     :     0.014047
      dx2y2   :     0.022286
      dxy     :     0.031860
  2 C s       :     2.861450  s :     2.861450
      pz      :     0.989916  p :     3.094829
      px      :     1.052951
      py      :     1.051962
      dz2     :     0.009549  d :     0.109183
      dxz     :     0.015627
      dyz     :     0.014906
      dx2y2   :     0.039199
      dxy     :     0.029903
  3 C s       :     2.843871  s :     2.843871
      pz      :     1.008496  p :     3.116998
      px      :     1.041892
      py      :     1.066609
      dz2     :     0.007147  d :     0.103017
      dxz     :     0.014319
      dyz     :     0.011603
      dx2y2   :     0.034047
      dxy     :     0.035901
  4 C s       :     2.895900  s :     2.895900
      pz      :     1.068816  p :     3.184877
      px      :     1.034856
      py      :     1.081205
      dz2     :     0.009655  d :     0.112804
      dxz     :     0.011978
      dyz     :     0.018037
      dx2y2   :     0.031731
      dxy     :     0.041403
  5 H s       :     0.898729  s :     0.898729
      pz      :     0.018328  p :     0.073591
      px      :     0.023728
      py      :     0.031535
  6 C s       :     2.851261  s :     2.851261
      pz      :     1.037521  p :     3.109888
      px      :     1.053075
      py      :     1.019292
      dz2     :     0.017786  d :     0.081703
      dxz     :     0.019218
      dyz     :     0.012501
      dx2y2   :     0.005556
      dxy     :     0.026643
  7 H s       :     0.904362  s :     0.904362
      pz      :     0.012969  p :     0.064461
      px      :     0.024901
      py      :     0.026591
  8 H s       :     0.898790  s :     0.898790
      pz      :     0.025883  p :     0.063417
      px      :     0.020193
      py      :     0.017340
  9 C s       :     2.848019  s :     2.848019
      pz      :     1.006967  p :     3.108717
      px      :     1.026618
      py      :     1.075131
      dz2     :     0.023901  d :     0.084484
      dxz     :     0.021490
      dyz     :     0.007699
      dx2y2   :     0.010428
      dxy     :     0.020967
 10 H s       :     0.912528  s :     0.912528
      pz      :     0.009921  p :     0.057952
      px      :     0.028469
      py      :     0.019561
 11 H s       :     0.907584  s :     0.907584
      pz      :     0.014069  p :     0.069369
      px      :     0.018870
      py      :     0.036430
 12 C s       :     2.828417  s :     2.828417
      pz      :     1.040440  p :     3.168922
      px      :     1.059167
      py      :     1.069315
      dz2     :     0.019862  d :     0.071407
      dxz     :     0.018716
      dyz     :     0.004549
      dx2y2   :     0.010950
      dxy     :     0.017330
 13 H s       :     0.907926  s :     0.907926
      pz      :     0.013747  p :     0.066518
      px      :     0.030281
      py      :     0.022489
 14 H s       :     0.902937  s :     0.902937
      pz      :     0.014062  p :     0.067154
      px      :     0.015584
      py      :     0.037508
 15 H s       :     0.905715  s :     0.905715
      pz      :     0.034965  p :     0.069749
      px      :     0.019551
      py      :     0.015233
 16 S s       :     5.520330  s :     5.520330
      pz      :     3.370037  p :     9.964412
      px      :     3.002783
      py      :     3.591593
      dz2     :     0.022816  d :     0.127678
      dxz     :     0.040742
      dyz     :     0.015895
      dx2y2   :     0.022452
      dxy     :     0.025772
 17 C s       :     2.942163  s :     2.942163
      pz      :     1.079975  p :     3.149015
      px      :     1.001632
      py      :     1.067408
      dz2     :     0.021434  d :     0.080728
      dxz     :     0.029677
      dyz     :     0.012873
      dx2y2   :     0.008573
      dxy     :     0.008171
 18 C s       :     2.867761  s :     2.867761
      pz      :     1.061471  p :     3.110116
      px      :     1.033777
      py      :     1.014867
      dz2     :     0.027448  d :     0.089378
      dxz     :     0.029311
      dyz     :     0.012470
      dx2y2   :     0.011460
      dxy     :     0.008688
 19 C s       :     2.863501  s :     2.863501
      pz      :     1.043005  p :     3.086545
      px      :     1.048493
      py      :     0.995046
      dz2     :     0.025997  d :     0.109040
      dxz     :     0.035826
      dyz     :     0.015464
      dx2y2   :     0.015820
      dxy     :     0.015933
 20 C s       :     2.916663  s :     2.916663
      pz      :     1.041973  p :     3.177941
      px      :     1.048126
      py      :     1.087841
      dz2     :     0.023626  d :     0.100598
      dxz     :     0.034556
      dyz     :     0.014816
      dx2y2   :     0.015712
      dxy     :     0.011888
 21 H s       :     0.896569  s :     0.896569
      pz      :     0.023374  p :     0.071976
      px      :     0.031943
      py      :     0.016659
 22 C s       :     2.841958  s :     2.841958
      pz      :     1.040892  p :     3.107161
      px      :     1.047470
      py      :     1.018799
      dz2     :     0.017905  d :     0.086629
      dxz     :     0.014603
      dyz     :     0.019661
      dx2y2   :     0.022145
      dxy     :     0.012315
 23 H s       :     0.899833  s :     0.899833
      pz      :     0.012120  p :     0.059371
      px      :     0.036816
      py      :     0.010435
 24 H s       :     0.899702  s :     0.899702
      pz      :     0.023121  p :     0.066465
      px      :     0.023905
      py      :     0.019440
 25 C s       :     2.834217  s :     2.834217
      pz      :     1.035744  p :     3.115648
      px      :     1.077342
      py      :     1.002561
      dz2     :     0.019084  d :     0.087371
      dxz     :     0.016189
      dyz     :     0.019289
      dx2y2   :     0.020915
      dxy     :     0.011893
 26 H s       :     0.908681  s :     0.908681
      pz      :     0.016321  p :     0.068333
      px      :     0.037276
      py      :     0.014736
 27 H s       :     0.912387  s :     0.912387
      pz      :     0.027924  p :     0.069660
      px      :     0.022784
      py      :     0.018952
 28 C s       :     2.828350  s :     2.828350
      pz      :     1.031540  p :     3.163657
      px      :     1.080403
      py      :     1.051713
      dz2     :     0.016336  d :     0.072776
      dxz     :     0.020920
      dyz     :     0.011506
      dx2y2   :     0.018356
      dxy     :     0.005659
 29 H s       :     0.911076  s :     0.911076
      pz      :     0.017188  p :     0.066739
      px      :     0.034693
      py      :     0.014858
 30 H s       :     0.908320  s :     0.908320
      pz      :     0.028599  p :     0.072702
      px      :     0.026466
      py      :     0.017637
 31 H s       :     0.905378  s :     0.905378
      pz      :     0.012078  p :     0.063155
      px      :     0.012458
      py      :     0.038619
 32 H s       :     0.899748  s :     0.899748
      pz      :     0.018414  p :     0.076499
      px      :     0.044290
      py      :     0.013795
 33 H s       :     0.898452  s :     0.898452
      pz      :     0.019924  p :     0.073618
      px      :     0.035254
      py      :     0.018440


                      *****************************
                      * MAYER POPULATION ANALYSIS *
                      *****************************

  NA   - Mulliken gross atomic population
  ZA   - Total nuclear charge
  QA   - Mulliken gross atomic charge
  VA   - Mayer's total valence
  BVA  - Mayer's bonded valence
  FA   - Mayer's free valence

  ATOM       NA         ZA         QA         VA         BVA        FA
  0 S     15.8888    16.0000     0.1112     2.4693     2.4693     0.0000
  1 C      6.1201     6.0000    -0.1201     3.8419     3.8419    -0.0000
  2 C      6.0642     6.0000    -0.0642     3.9718     3.9718     0.0000
  3 C      5.9719     6.0000     0.0281     3.9654     3.9654     0.0000
  4 C      6.1260     6.0000    -0.1260     3.8962     3.8962     0.0000
  5 H      1.0072     1.0000    -0.0072     1.0108     1.0108     0.0000
  6 C      5.9707     6.0000     0.0293     3.9416     3.9416    -0.0000
  7 H      0.9861     1.0000     0.0139     0.9857     0.9857    -0.0000
  8 H      0.9549     1.0000     0.0451     0.9841     0.9841     0.0000
  9 C      6.0556     6.0000    -0.0556     4.0765     4.0765     0.0000
 10 H      0.9637     1.0000     0.0363     0.9771     0.9771    -0.0000
 11 H      0.9746     1.0000     0.0254     0.9758     0.9758    -0.0000
 12 C      6.0537     6.0000    -0.0537     3.9871     3.9871     0.0000
 13 H      0.9668     1.0000     0.0332     0.9938     0.9938    -0.0000
 14 H      0.9539     1.0000     0.0461     0.9919     0.9919     0.0000
 15 H      0.9751     1.0000     0.0249     0.9885     0.9885     0.0000
 16 S     15.9135    16.0000     0.0865     2.4756     2.4756    -0.0000
 17 C      6.1003     6.0000    -0.1003     3.8404     3.8404     0.0000
 18 C      6.0184     6.0000    -0.0184     3.9163     3.9163    -0.0000
 19 C      6.0366     6.0000    -0.0366     4.0293     4.0293    -0.0000
 20 C      6.1698     6.0000    -0.1698     3.8926     3.8926    -0.0000
 21 H      0.9780     1.0000     0.0220     0.9980     0.9980     0.0000
 22 C      5.9706     6.0000     0.0294     3.9785     3.9785    -0.0000
 23 H      0.9493     1.0000     0.0507     0.9887     0.9887    -0.0000
 24 H      0.9720     1.0000     0.0280     0.9858     0.9858     0.0000
 25 C      6.0549     6.0000    -0.0549     4.0712     4.0712    -0.0000
 26 H      0.9822     1.0000     0.0178     0.9837     0.9837     0.0000
 27 H      0.9855     1.0000     0.0145     0.9896     0.9896     0.0000
 28 C      6.0256     6.0000    -0.0256     3.9928     3.9928    -0.0000
 29 H      0.9788     1.0000     0.0212     0.9959     0.9959     0.0000
 30 H      0.9817     1.0000     0.0183     0.9907     0.9907     0.0000
 31 H      0.9591     1.0000     0.0409     0.9852     0.9852    -0.0000
 32 H      0.9546     1.0000     0.0454     1.0033     1.0033    -0.0000
 33 H      0.9357     1.0000     0.0643     0.9926     0.9926    -0.0000

  Mayer bond orders larger than 0.100000
B(  0-S ,  1-C ) :   1.1387 B(  0-S ,  4-C ) :   1.1416 B(  1-C ,  2-C ) :   1.6175 
B(  1-C , 32-H ) :   0.9730 B(  2-C ,  3-C ) :   1.2273 B(  2-C ,  6-C ) :   1.0058 
B(  3-C ,  4-C ) :   1.6189 B(  3-C ,  5-H ) :   0.9994 B(  4-C , 20-C ) :   0.9986 
B(  6-C ,  7-H ) :   0.9412 B(  6-C ,  8-H ) :   0.9432 B(  6-C ,  9-C ) :   1.0653 
B(  9-C , 10-H ) :   0.9567 B(  9-C , 11-H ) :   0.9537 B(  9-C , 12-C ) :   1.0738 
B( 12-C , 13-H ) :   0.9761 B( 12-C , 14-H ) :   0.9715 B( 12-C , 15-H ) :   0.9718 
B( 16-S , 17-C ) :   1.1554 B( 16-S , 20-C ) :   1.1388 B( 17-C , 18-C ) :   1.6084 
B( 17-C , 20-C ) :   0.1005 B( 17-C , 33-H ) :   0.9683 B( 18-C , 19-C ) :   1.2235 
B( 18-C , 21-H ) :   0.9916 B( 19-C , 20-C ) :   1.6060 B( 19-C , 22-C ) :   1.0636 
B( 22-C , 23-H ) :   0.9315 B( 22-C , 24-H ) :   0.9285 B( 22-C , 25-C ) :   1.0621 
B( 25-C , 26-H ) :   0.9501 B( 25-C , 27-H ) :   0.9531 B( 25-C , 28-C ) :   1.0834 
B( 28-C , 29-H ) :   0.9721 B( 28-C , 30-H ) :   0.9733 B( 28-C , 31-H ) :   0.9734 


-------
TIMINGS
-------

Total SCF time: 0 days 0 hours 0 min 33 sec 

Total time                  ....      33.870 sec
Sum of individual times     ....      32.779 sec  ( 96.8%)

Fock matrix formation       ....      30.641 sec  ( 90.5%)
  XC integration            ....       2.071 sec  (  6.8% of F)
    Basis function eval.    ....       0.243 sec  ( 11.7% of XC)
    Density eval.           ....       0.186 sec  (  9.0% of XC)
    XC-Functional eval.     ....       0.208 sec  ( 10.0% of XC)
    XC-Potential eval.      ....       0.210 sec  ( 10.1% of XC)
Diagonalization             ....       0.189 sec  (  0.6%)
Density matrix formation    ....       0.032 sec  (  0.1%)
Population analysis         ....       0.052 sec  (  0.2%)
Initial guess               ....       0.208 sec  (  0.6%)
Orbital Transformation      ....       0.000 sec  (  0.0%)
Orbital Orthonormalization  ....       0.000 sec  (  0.0%)
DIIS solution               ....       0.179 sec  (  0.5%)
SOSCF solution              ....       0.170 sec  (  0.5%)
Grid generation             ....       1.310 sec  (  3.9%)


-------------------------------------------------------------------------------
                          DFT DISPERSION CORRECTION                            
                                                                               
                              DFTD3 V3.1  Rev 1                                
                              USING zero damping                               
-------------------------------------------------------------------------------
The omegaB97X-D3 functional is recognized. Fit by Chai et al.
Active option DFTDOPT                   ...         3   

molecular C6(AA) [au] = 14172.888568 


            DFT-D V3
 parameters
 s6 scaling factor         :     1.0000 
 rs6 scaling factor        :     1.2810 
 s8 scaling factor         :     1.0000 
 rs8 scaling factor        :     1.0940 
 Damping factor alpha6     :    14.0000 
 Damping factor alpha8     :    16.0000 
 ad hoc parameters k1-k3   :    16.0000     1.3333    -4.0000 

 Edisp/kcal,au: -9.721861218632  -0.015492770362 
 E6   /kcal   :  -4.617743747 
 E8   /kcal   :  -5.104117472 
 % E8         :  52.501443468 

-------------------------   ----------------
Dispersion correction           -0.015492770
-------------------------   ----------------


-------------------------   --------------------
FINAL SINGLE POINT ENERGY     -1339.880606946257
-------------------------   --------------------


                            ***************************************
                            *     ORCA property calculations      *
                            ***************************************

                                    ---------------------
                                    Active property flags
                                    ---------------------
   (+) Dipole Moment


------------------------------------------------------------------------------
                       ORCA ELECTRIC PROPERTIES CALCULATION
------------------------------------------------------------------------------

Dipole Moment Calculation                       ... on
Quadrupole Moment Calculation                   ... off
Polarizability Calculation                      ... off
GBWName                                         ... config_8551.gbw
Electron density file                           ... config_8551.scfp
The origin for moment calculation is the CENTER OF MASS  = (-179.609344, 102.721483 236.195862)

-------------
DIPOLE MOMENT
-------------
                                X             Y             Z
Electronic contribution:     -5.83970      20.21179      22.97152
Nuclear contribution   :      5.80970     -20.68190     -23.54138
                        -----------------------------------------
Total Dipole Moment    :     -0.03000      -0.47011      -0.56986
                        -----------------------------------------
Magnitude (a.u.)       :      0.73935
Magnitude (Debye)      :      1.87928



--------------------
Rotational spectrum 
--------------------
 
Rotational constants in cm-1:     0.017543     0.010441     0.007092 
Rotational constants in MHz :   525.937656   313.000127   212.600642 

 Dipole components along the rotational axes: 
x,y,z [a.u.] :     0.207601    -0.709281     0.021530 
x,y,z [Debye]:     0.527681    -1.802850     0.054725 

 

Timings for individual modules:

Sum of individual times         ...       35.141 sec (=   0.586 min)
GTO integral calculation        ...        0.798 sec (=   0.013 min)   2.3 %
SCF iterations                  ...       34.344 sec (=   0.572 min)  97.7 %
                             ****ORCA TERMINATED NORMALLY****
TOTAL RUN TIME: 0 days 0 hours 0 minutes 35 seconds 790 msec
