
                                 *****************
                                 * O   R   C   A *
                                 *****************

           --- An Ab Initio, DFT and Semiempirical electronic structure package ---

                  #######################################################
                  #                        -***-                        #
                  #          Department of theory and spectroscopy      #
                  #               Directorship: Frank Neese             #
                  #        Max Planck Institute fuer Kohlenforschung    #
                  #                Kaiser Wilhelm Platz 1               #
                  #                 D-45470 Muelheim/Ruhr               #
                  #                      Germany                        #
                  #                                                     #
                  #                  All rights reserved                #
                  #                        -***-                        #
                  #######################################################


                         Program Version 4.2.1 -  RELEASE  -


 With contributions from (in alphabetic order):
   Daniel Aravena         : Magnetic Suceptibility
   Michael Atanasov       : Ab Initio Ligand Field Theory (pilot matlab implementation)
   Alexander A. Auer      : GIAO ZORA, VPT2
   Ute Becker             : Parallelization
   Giovanni Bistoni       : ED, misc. LED, open-shell LED, HFLD
   Martin Brehm           : Molecular dynamics
   Dmytro Bykov           : SCF Hessian
   Vijay G. Chilkuri      : MRCI spin determinant printing, contributions to CSF-ICE
   Dipayan Datta          : RHF DLPNO-CCSD density
   Achintya Kumar Dutta   : EOM-CC, STEOM-CC
   Dmitry Ganyushin       : Spin-Orbit,Spin-Spin,Magnetic field MRCI
   Miquel Garcia          : C-PCM Hessian, Gaussian charge scheme
   Yang Guo               : DLPNO-NEVPT2, CIM, IAO-localization
   Andreas Hansen         : Spin unrestricted coupled pair/coupled cluster methods
   Benjamin Helmich-Paris : CASSCF linear response (MC-RPA)
   Lee Huntington         : MR-EOM, pCC
   Robert Izsak           : Overlap fitted RIJCOSX, COSX-SCS-MP3, EOM
   Christian Kollmar      : KDIIS, OOCD, Brueckner-CCSD(T), CCSD density
   Simone Kossmann        : Meta GGA functionals, TD-DFT gradient, OOMP2, MP2 Hessian
   Martin Krupicka        : AUTO-CI
   Lucas Lang             : DCDCAS
   Dagmar Lenk            : GEPOL surface, SMD
   Dimitrios Liakos       : Extrapolation schemes; Compound Job, initial MDCI parallelization
   Dimitrios Manganas     : Further ROCIS development; embedding schemes
   Dimitrios Pantazis     : SARC Basis sets
   Taras Petrenko         : DFT Hessian,TD-DFT gradient, ASA, ECA, R-Raman, ABS, FL, XAS/XES, NRVS
   Peter Pinski           : DLPNO-MP2, DLPNO-MP2 Gradient
   Christoph Reimann      : Effective Core Potentials
   Marius Retegan         : Local ZFS, SOC
   Christoph Riplinger    : Optimizer, TS searches, QM/MM, DLPNO-CCSD(T), (RO)-DLPNO pert. Triples
   Tobias Risthaus        : Range-separated hybrids, TD-DFT gradient, RPA, STAB
   Michael Roemelt        : Original ROCIS implementation
   Masaaki Saitow         : Open-shell DLPNO-CCSD energy and density
   Barbara Sandhoefer     : DKH picture change effects
   Avijit Sen             : IP-ROCIS
   Kantharuban Sivalingam : CASSCF convergence, NEVPT2, FIC-MRCI
   Bernardo de Souza      : ESD, SOC TD-DFT
   Georgi Stoychev        : AutoAux, RI-MP2 NMR
   Willem Van den Heuvel  : Paramagnetic NMR
   Boris Wezisla          : Elementary symmetry handling
   Frank Wennmohs         : Technical directorship


 We gratefully acknowledge several colleagues who have allowed us to
 interface, adapt or use parts of their codes:
   Stefan Grimme, W. Hujo, H. Kruse,             : VdW corrections, initial TS optimization,
                  C. Bannwarth                     DFT functionals, gCP, sTDA/sTD-DF
   Ed Valeev, F. Pavosevic, A. Kumar             : LibInt (2-el integral package), F12 methods
   Garnet Chan, S. Sharma, J. Yang, R. Olivares  : DMRG
   Ulf Ekstrom                                   : XCFun DFT Library
   Mihaly Kallay                                 : mrcc  (arbitrary order and MRCC methods)
   Andreas Klamt, Michael Diedenhofen            : otool_cosmo (COSMO solvation model)
   Jiri Pittner, Ondrej Demel                    : Mk-CCSD
   Frank Weinhold                                : gennbo (NPA and NBO analysis)
   Christopher J. Cramer and Donald G. Truhlar   : smd solvation model
   Lars Goerigk                                  : TD-DFT with DH, B97 family of functionals
   V. Asgeirsson, H. Jonsson                     : NEB implementation
   FAccTs GmbH                                   : IRC, NEB, NEB-TS, Multilevel, MM, QM/MM, CI optimization
   S Lehtola, MJT Oliveira, MAL Marques          : LibXC Library


 Your calculation uses the libint2 library for the computation of 2-el integrals
 For citations please refer to: http://libint.valeyev.net

 Your ORCA version has been built with support for libXC version: 4.2.3
 For citations please refer to: https://tddft.org/programs/libxc/

 This ORCA versions uses:
   CBLAS   interface :  Fast vector & matrix operations
   LAPACKE interface :  Fast linear algebra routines
   SCALAPACK package :  Parallel linear algebra routines


Your calculation utilizes the atom-pairwise dispersion correction
with the zero-damping scheme (D30)
Cite in your paper:
S.Grimme, J.Antony, S.Ehrlich and H.Krieg, J.Chem.Phys., 132, (2010), 154104 
   

XCFun DFT library Copyright 2009-2010 Ulf Ekstrom and contributors.
See http://admol.org/xcfun for more information. This is free soft-
ware; see the source code for copying conditions. There is ABSOLUTELY
NO WARRANTY; not even for MERCHANTABILITY or FITNESS FOR A PARTICULAR
PURPOSE. For details see the documentation. Scientific users of this 
library should cite U. Ekstrom, L. Visscher, R. Bast, A. J. Thorvald-
sen and K. Ruud; J.Chem.Theor.Comp. 2010, DOI: 10.1021/ct100117s
XCFun Version 0.99 
----- Orbital basis set information -----
Your calculation utilizes the basis: def2-SVP
   F. Weigend and R. Ahlrichs, Phys. Chem. Chem. Phys. 7, 3297 (2005).

================================================================================
                                        WARNINGS
                       Please study these warnings very carefully!
================================================================================


INFO   : the flag for use of LIBINT has been found!

================================================================================
                                       INPUT FILE
================================================================================
NAME = config_8605.inp
|  1> ! wB97X-D3 SP def2-SVP
|  2> %pal
|  3> nprocs 16
|  4> end
|  5> 
|  6> * xyz 0 1
|  7> S 	 -94.6868 	 43.3475 	 126.409 	 
|  8> C 	 -93.2667 	 42.3558 	 126.416 	 
|  9> C 	 -93.5994 	 41.0476 	 126.639 	 
| 10> C 	 -94.9971 	 40.8037 	 126.483 	 
| 11> C 	 -95.7248 	 42.016 	 126.333 	 
| 12> H 	 -95.5442 	 39.8742 	 126.62 	 
| 13> C 	 -92.6447 	 39.9494 	 126.767 	 
| 14> H 	 -93.1486 	 39.2272 	 127.402 	 
| 15> H 	 -91.7065 	 40.1562 	 127.173 	 
| 16> C 	 -92.4103 	 39.2099 	 125.472 	 
| 17> H 	 -93.3518 	 38.853 	 125.079 	 
| 18> H 	 -92.0035 	 40.0275 	 124.838 	 
| 19> C 	 -91.3013 	 38.0922 	 125.517 	 
| 20> H 	 -91.1893 	 37.7116 	 124.568 	 
| 21> H 	 -90.3989 	 38.3466 	 125.987 	 
| 22> H 	 -91.6105 	 37.2261 	 126.1 	 
| 23> S 	 -98.0655 	 42.0664 	 127.743 	 
| 24> C 	 -99.5217 	 42.4466 	 126.86 	 
| 25> C 	 -99.3655 	 42.5151 	 125.526 	 
| 26> C 	 -98.0479 	 42.233 	 125.082 	 
| 27> C 	 -97.1773 	 42.1396 	 126.176 	 
| 28> H 	 -100.201 	 42.7857 	 124.882 	 
| 29> C 	 -97.7028 	 42.2949 	 123.647 	 
| 30> H 	 -96.6165 	 42.0069 	 123.603 	 
| 31> H 	 -97.5491 	 43.2619 	 123.291 	 
| 32> C 	 -98.4595 	 41.429 	 122.683 	 
| 33> H 	 -99.5185 	 41.503 	 122.828 	 
| 34> H 	 -98.3032 	 40.3426 	 122.834 	 
| 35> C 	 -98.1575 	 41.8172 	 121.231 	 
| 36> H 	 -98.6742 	 42.7157 	 120.865 	 
| 37> H 	 -98.5463 	 41.0633 	 120.491 	 
| 38> H 	 -97.1126 	 41.6871 	 120.943 	 
| 39> H 	 -92.3843 	 42.7125 	 126.792 	 
| 40> H 	 -100.537 	 42.5427 	 127.254 	 
| 41> *
| 42> 
| 43>                          ****END OF INPUT****
================================================================================

                       ****************************
                       * Single Point Calculation *
                       ****************************

---------------------------------
CARTESIAN COORDINATES (ANGSTROEM)
---------------------------------
  S    -94.686800   43.347500  126.409000
  C    -93.266700   42.355800  126.416000
  C    -93.599400   41.047600  126.639000
  C    -94.997100   40.803700  126.483000
  C    -95.724800   42.016000  126.333000
  H    -95.544200   39.874200  126.620000
  C    -92.644700   39.949400  126.767000
  H    -93.148600   39.227200  127.402000
  H    -91.706500   40.156200  127.173000
  C    -92.410300   39.209900  125.472000
  H    -93.351800   38.853000  125.079000
  H    -92.003500   40.027500  124.838000
  C    -91.301300   38.092200  125.517000
  H    -91.189300   37.711600  124.568000
  H    -90.398900   38.346600  125.987000
  H    -91.610500   37.226100  126.100000
  S    -98.065500   42.066400  127.743000
  C    -99.521700   42.446600  126.860000
  C    -99.365500   42.515100  125.526000
  C    -98.047900   42.233000  125.082000
  C    -97.177300   42.139600  126.176000
  H    -100.201000   42.785700  124.882000
  C    -97.702800   42.294900  123.647000
  H    -96.616500   42.006900  123.603000
  H    -97.549100   43.261900  123.291000
  C    -98.459500   41.429000  122.683000
  H    -99.518500   41.503000  122.828000
  H    -98.303200   40.342600  122.834000
  C    -98.157500   41.817200  121.231000
  H    -98.674200   42.715700  120.865000
  H    -98.546300   41.063300  120.491000
  H    -97.112600   41.687100  120.943000
  H    -92.384300   42.712500  126.792000
  H    -100.537000   42.542700  127.254000

----------------------------
CARTESIAN COORDINATES (A.U.)
----------------------------
  NO LB      ZA    FRAG     MASS         X           Y           Z
   0 S    16.0000    0    32.060  -178.932120   81.914904  238.878391
   1 C     6.0000    0    12.011  -176.248520   80.040862  238.891619
   2 C     6.0000    0    12.011  -176.877232   77.568722  239.313028
   3 C     6.0000    0    12.011  -179.518503   77.107818  239.018231
   4 C     6.0000    0    12.011  -180.893656   79.398733  238.734772
   5 H     1.0000    0     1.008  -180.552372   75.351318  239.277123
   6 C     6.0000    0    12.011  -175.073111   75.493425  239.554913
   7 H     1.0000    0     1.008  -176.025344   74.128665  240.754889
   8 H     1.0000    0     1.008  -173.300170   75.884221  240.322142
   9 C     6.0000    0    12.011  -174.630159   74.095973  237.107717
  10 H     1.0000    0     1.008  -176.409336   73.421529  236.365055
  11 H     1.0000    0     1.008  -173.861418   75.641013  235.909631
  12 C     6.0000    0    12.011  -172.534453   71.983826  237.192755
  13 H     1.0000    0     1.008  -172.322803   71.264596  235.399405
  14 H     1.0000    0     1.008  -170.829164   72.464572  238.080926
  15 H     1.0000    0     1.008  -173.118756   70.347134  238.294465
  16 S    16.0000    0    32.060  -185.316938   79.493975  241.399286
  17 C     6.0000    0    12.011  -188.068757   80.212449  239.730657
  18 C     6.0000    0    12.011  -187.773582   80.341896  237.209763
  19 C     6.0000    0    12.011  -185.283679   79.808804  236.370724
  20 C     6.0000    0    12.011  -183.638483   79.632303  238.438085
  21 H     1.0000    0     1.008  -189.352448   80.853255  235.992779
  22 C     6.0000    0    12.011  -184.631535   79.925778  233.658967
  23 H     1.0000    0     1.008  -182.578725   79.381537  233.575819
  24 H     1.0000    0     1.008  -184.341084   81.753143  232.986225
  25 C     6.0000    0    12.011  -186.061490   78.289464  231.837271
  26 H     1.0000    0     1.008  -188.062710   78.429304  232.111282
  27 H     1.0000    0     1.008  -185.766126   76.236466  232.122620
  28 C     6.0000    0    12.011  -185.490793   79.023056  229.093389
  29 H     1.0000    0     1.008  -186.467214   80.720975  228.401749
  30 H     1.0000    0     1.008  -186.225519   77.598391  227.694992
  31 H     1.0000    0     1.008  -183.516218   78.777202  228.549148
  32 H     1.0000    0     1.008  -174.581026   80.714927  239.602156
  33 H     1.0000    0     1.008  -189.987396   80.394052  240.475209

--------------------------------
INTERNAL COORDINATES (ANGSTROEM)
--------------------------------
 S      0   0   0     0.000000000000     0.00000000     0.00000000
 C      1   0   0     1.732109090098     0.00000000     0.00000000
 C      2   1   0     1.368139440993   110.41035003     0.00000000
 C      3   2   1     1.427371185081   112.56277184    14.14440504
 C      4   3   2     1.421871506150   111.53028471   351.15482590
 H      4   3   2     1.087224751374   128.68662957   181.60389010
 C      3   2   1     1.460780383904   125.04406177   182.85015935
 H      7   3   2     1.085685520766   104.35962577   152.24036424
 H      7   3   2     1.042986807203   118.22532422    31.28800209
 C      7   3   2     1.509578951231   113.24055250   265.10077406
 H     10   7   3     1.080855614779   109.78050662   304.23581500
 H     10   7   3     1.111715791019   100.70621177    61.05027559
 C     10   7   3     1.575169606741   115.62088848   175.08463062
 H     13  10   7     1.028591930748   108.23173686   183.96604301
 H     13  10   7     1.048782684830   116.51725462   314.22328480
 H     13  10   7     1.088863099751   112.31986675    70.53349278
 S      5   4   3     2.733041648054   113.55427035   222.12482431
 C     17   5   4     1.744923918112   117.23759104   233.62534307
 C     18  17   5     1.344859356959   114.59008068     7.94094385
 C     19  18  17     1.418726953998   114.08985375     1.43044159
 C     20  19  18     1.401250841213   110.23883818   351.37671907
 H     19  18  17     1.089045733659   120.67175228   182.50269935
 C     20  19  18     1.477210418322   120.84022997   181.35194106
 H     23  20  19     1.124690041745   104.65010895   181.13185749
 H     23  20  19     1.041848688630   113.90953782    79.10338563
 C     23  20  19     1.500557796288   118.82151536   302.09446479
 H     26  23  20     1.071439218995   111.81610822    48.53108892
 H     26  23  20     1.107924027179   114.02551368   294.89077660
 C     26  23  20     1.533038564420   111.28488011   169.12735553
 H     29  26  23     1.099198407932   115.45202513   282.12612515
 H     29  26  23     1.125668978874   112.64396500   168.67379353
 H     29  26  23     1.091643723932   114.09538380    62.51028969
 H      2   1   3     1.023347765913   120.58826541   215.04255893
 H     18  17   5     1.093300187506   127.71857390   182.00332155

---------------------------
INTERNAL COORDINATES (A.U.)
---------------------------
 S      0   0   0     0.000000000000     0.00000000     0.00000000
 C      1   0   0     3.273211814361     0.00000000     0.00000000
 C      2   1   0     2.585408856492   110.41035003     0.00000000
 C      3   2   1     2.697340631254   112.56277184    14.14440504
 C      4   3   2     2.686947744249   111.53028471   351.15482590
 H      4   3   2     2.054557026117   128.68662957   181.60389010
 C      3   2   1     2.760474867384   125.04406177   182.85015935
 H      7   3   2     2.051648301811   104.35962577   152.24036424
 H      7   3   2     1.970959426907   118.22532422    31.28800209
 C      7   3   2     2.852690795359   113.24055250   265.10077406
 H     10   7   3     2.042521102244   109.78050662   304.23581500
 H     10   7   3     2.100838383781   100.70621177    61.05027559
 C     10   7   3     2.976639171217   115.62088848   175.08463062
 H     13  10   7     1.943757052675   108.23173686   183.96604301
 H     13  10   7     1.981912048328   116.51725462   314.22328480
 H     13  10   7     2.057653055863   112.31986675    70.53349278
 S      5   4   3     5.164700227424   113.55427035   222.12482431
 C     17   5   4     3.297428329761   117.23759104   233.62534307
 C     18  17   5     2.541415873294   114.59008068     7.94094385
 C     19  18  17     2.681005401868   114.08985375     1.43044159
 C     20  19  18     2.647980334819   110.23883818   351.37671907
 H     19  18  17     2.057998183930   120.67175228   182.50269935
 C     20  19  18     2.791523132804   120.84022997   181.35194106
 H     23  20  19     2.125356164446   104.65010895   181.13185749
 H     23  20  19     1.968808694496   113.90953782    79.10338563
 C     23  20  19     2.835643283104   118.82151536   302.09446479
 H     26  23  20     2.024726693042   111.81610822    48.53108892
 H     26  23  20     2.093672988559   114.02551368   294.89077660
 C     26  23  20     2.897023039494   111.28488011   169.12735553
 H     29  26  23     2.077183957834   115.45202513   282.12612515
 H     29  26  23     2.127206087523   112.64396500   168.67379353
 H     29  26  23     2.062907674045   114.09538380    62.51028969
 H      2   1   3     1.933847017337   120.58826541   215.04255893
 H     18  17   5     2.066037936551   127.71857390   182.00332155

---------------------
BASIS SET INFORMATION
---------------------
There are 3 groups of distinct atoms

 Group   1 Type S   : 10s7p1d contracted to 4s3p1d pattern {5311/511/1}
 Group   2 Type C   : 7s4p1d contracted to 3s2p1d pattern {511/31/1}
 Group   3 Type H   : 4s1p contracted to 2s1p pattern {31/1}

Atom   0S    basis set group =>   1
Atom   1C    basis set group =>   2
Atom   2C    basis set group =>   2
Atom   3C    basis set group =>   2
Atom   4C    basis set group =>   2
Atom   5H    basis set group =>   3
Atom   6C    basis set group =>   2
Atom   7H    basis set group =>   3
Atom   8H    basis set group =>   3
Atom   9C    basis set group =>   2
Atom  10H    basis set group =>   3
Atom  11H    basis set group =>   3
Atom  12C    basis set group =>   2
Atom  13H    basis set group =>   3
Atom  14H    basis set group =>   3
Atom  15H    basis set group =>   3
Atom  16S    basis set group =>   1
Atom  17C    basis set group =>   2
Atom  18C    basis set group =>   2
Atom  19C    basis set group =>   2
Atom  20C    basis set group =>   2
Atom  21H    basis set group =>   3
Atom  22C    basis set group =>   2
Atom  23H    basis set group =>   3
Atom  24H    basis set group =>   3
Atom  25C    basis set group =>   2
Atom  26H    basis set group =>   3
Atom  27H    basis set group =>   3
Atom  28C    basis set group =>   2
Atom  29H    basis set group =>   3
Atom  30H    basis set group =>   3
Atom  31H    basis set group =>   3
Atom  32H    basis set group =>   3
Atom  33H    basis set group =>   3


           ************************************************************
           *        Program running with 16 parallel MPI-processes    *
           *              working on a common directory               *
           ************************************************************
------------------------------------------------------------------------------
                           ORCA GTO INTEGRAL CALCULATION
------------------------------------------------------------------------------

                         BASIS SET STATISTICS AND STARTUP INFO

 # of primitive gaussian shells          ...  294
 # of primitive gaussian functions       ...  534
 # of contracted shells                  ...  154
 # of contracted basis functions         ...  322
 Highest angular momentum                ...    2
 Maximum contraction depth               ...    5
 Integral package used                   ... LIBINT
 Integral threshhold            Thresh   ...  1.000e-10
 Primitive cut-off              TCut     ...  1.000e-11


------------------------------ INTEGRAL EVALUATION ----------------------------


 * One electron integrals 
 Pre-screening matrix                    ... done
 Shell pair data                         ... done (   0.003 sec)



           ************************************************************
           *        Program running with 16 parallel MPI-processes    *
           *              working on a common directory               *
           ************************************************************
-------------------------------------------------------------------------------
                                 ORCA SCF
-------------------------------------------------------------------------------

------------
SCF SETTINGS
------------
Hamiltonian:
 Density Functional     Method          .... DFT(GTOs)
 Exchange Functional    Exchange        .... WB97X-D3
 Correlation Functional Correlation     .... WB97X-D3
 Gradients option       PostSCFGGA      .... off
 Hybrid DFT is turned on
   Fraction HF Exchange ScalHFX         ....  0.195728
   Scaling of DF-GGA-X  ScalDFX         ....  0.000000
   Scaling of DF-GGA-C  ScalDFC         ....  1.000000
   Scaling of DF-LDA-C  ScalLDAC        ....  1.000000
   Perturbative correction              ....  0.000000
   Density functional embedding theory  .... OFF
 Long-range corrected/Screened/Range-Separated Hybrid DFT is turned on
   Amount of maximum screened exact exchange              ....  0.804272
   Range separation parameter mu (erf(mu*r12)/r12)        ....  0.250000


General Settings:
 Integral files         IntName         .... config_8605
 Hartree-Fock type      HFTyp           .... RHF
 Total Charge           Charge          ....    0
 Multiplicity           Mult            ....    1
 Number of Electrons    NEL             ....  134
 Basis Dimension        Dim             ....  322
 Nuclear Repulsion      ENuc            ....   1268.0487325055 Eh

Convergence Acceleration:
 DIIS                   CNVDIIS         .... on
   Start iteration      DIISMaxIt       ....    12
   Startup error        DIISStart       ....  0.200000
   # of expansion vecs  DIISMaxEq       ....     5
   Bias factor          DIISBfac        ....   1.050
   Max. coefficient     DIISMaxC        ....  10.000
 Newton-Raphson         CNVNR           .... off
 SOSCF                  CNVSOSCF        .... on
   Start iteration      SOSCFMaxIt      ....   150
   Startup grad/error   SOSCFStart      ....  0.003300
 Level Shifting         CNVShift        .... on
   Level shift para.    LevelShift      ....    0.2500
   Turn off err/grad.   ShiftErr        ....    0.0010
 Zerner damping         CNVZerner       .... off
 Static damping         CNVDamp         .... on
   Fraction old density DampFac         ....    0.7000
   Max. Damping (<1)    DampMax         ....    0.9800
   Min. Damping (>=0)   DampMin         ....    0.0000
   Turn off err/grad.   DampErr         ....    0.1000
 Fernandez-Rico         CNVRico         .... off

SCF Procedure:
 Maximum # iterations   MaxIter         ....   125
 SCF integral mode      SCFMode         .... Direct
   Integral package                     .... LIBINT
 Reset frequency        DirectResetFreq ....    20
 Integral Threshold     Thresh          ....  1.000e-10 Eh
 Primitive CutOff       TCut            ....  1.000e-11 Eh

Convergence Tolerance:
 Convergence Check Mode ConvCheckMode   .... Total+1el-Energy
 Convergence forced     ConvForced      .... 0
 Energy Change          TolE            ....  1.000e-06 Eh
 1-El. energy change                    ....  1.000e-03 Eh
 Orbital Gradient       TolG            ....  5.000e-05
 Orbital Rotation angle TolX            ....  5.000e-05
 DIIS Error             TolErr          ....  1.000e-06


Diagonalization of the overlap matrix:
Smallest eigenvalue                        ... 6.710e-04
Time for diagonalization                   ...    0.016 sec
Threshold for overlap eigenvalues          ... 1.000e-08
Number of eigenvalues below threshold      ... 0
Time for construction of square roots      ...    0.023 sec
Total time needed                          ...    0.040 sec

-------------------
DFT GRID GENERATION
-------------------

General Integration Accuracy     IntAcc      ...  4.340
Radial Grid Type                 RadialGrid  ... Gauss-Chebyshev
Angular Grid (max. acc.)         AngularGrid ... Lebedev-110
Angular grid pruning method      GridPruning ... 3 (G Style)
Weight generation scheme         WeightScheme... Becke
Basis function cutoff            BFCut       ...    1.0000e-10
Integration weight cutoff        WCut        ...    1.0000e-14
Grids for H and He will be reduced by one unit

# of grid points (after initial pruning)     ...  41088 (   0.0 sec)
# of grid points (after weights+screening)   ...  37064 (   0.0 sec)
nearest neighbour list constructed           ...    0.0 sec
Grid point re-assignment to atoms done       ...    0.0 sec
Grid point division into batches done        ...    0.0 sec
Reduced shell lists constructed in    0.1 sec

Total number of grid points                  ...    37064
Total number of batches                      ...      599
Average number of points per batch           ...       61
Average number of grid points per atom       ...     1090
Average number of shells per batch           ...    77.54 (50.35%)
Average number of basis functions per batch  ...   153.69 (47.73%)
Average number of large shells per batch     ...    48.74 (62.86%)
Average number of large basis fcns per batch ...   100.38 (65.32%)
Maximum spatial batch extension              ...  12.74, 13.91, 16.01 au
Average spatial batch extension              ...   0.21,  0.22,  0.24 au

Time for grid setup =    0.210 sec

------------------------------
INITIAL GUESS: MODEL POTENTIAL
------------------------------
Loading Hartree-Fock densities                     ... done
Calculating cut-offs                               ... done
Setting up the integral package                    ... done
Initializing the effective Hamiltonian             ... done
Starting the Coulomb interaction                   ... done (   0.0 sec)
Reading the grid                                   ... done
Mapping shells                                     ... done
Starting the XC term evaluation                    ... done (   0.1 sec)
  promolecular density results
     # of electrons  =    133.984836464
     EX              =   -126.796269467
     EC              =     -4.626802306
     EX+EC           =   -131.423071774
Transforming the Hamiltonian                       ... done (   0.0 sec)
Diagonalizing the Hamiltonian                      ... done (   0.0 sec)
Back transforming the eigenvectors                 ... done (   0.0 sec)
Now organizing SCF variables                       ... done
                      ------------------
                      INITIAL GUESS DONE (   0.4 sec)
                      ------------------
--------------
SCF ITERATIONS
--------------
ITER       Energy         Delta-E        Max-DP      RMS-DP      [F,P]     Damp
               ***  Starting incremental Fock matrix formation  ***
  0  -1339.3761506288   0.000000000000 0.06664942  0.00161435  0.1668967 0.7000
  1  -1339.5730926878  -0.196942058942 0.04504439  0.00118857  0.1022048 0.7000
                               ***Turning on DIIS***
  2  -1339.6695031265  -0.096410438679 0.10039846  0.00227703  0.0540831 0.0000
  3  -1339.8154710118  -0.145967885346 0.04577518  0.00097036  0.0369518 0.0000
  4  -1339.8460309095  -0.030559897664 0.00833611  0.00021596  0.0082288 0.0000
                      *** Initiating the SOSCF procedure ***
                           *** Shutting down DIIS ***
                      *** Re-Reading the Fockian *** 
                      *** Removing any level shift *** 
ITER      Energy       Delta-E        Grad      Rot      Max-DP    RMS-DP
  5  -1339.84699804  -0.0009671323  0.001227  0.001227  0.003253  0.000103
               *** Restarting incremental Fock matrix formation ***
  6  -1339.84719539  -0.0001973517  0.000947  0.002497  0.003329  0.000072
  7  -1339.84725948  -0.0000640862  0.000680  0.003710  0.004673  0.000072
  8  -1339.84727842  -0.0000189365  0.000452  0.000729  0.000812  0.000024
  9  -1339.84728390  -0.0000054874  0.000147  0.000319  0.000426  0.000009
 10  -1339.84728450  -0.0000005918  0.000071  0.000215  0.000230  0.000004
                 **** Energy Check signals convergence ****
              ***Rediagonalizing the Fockian in SOSCF/NRSCF***

               *****************************************************
               *                     SUCCESS                       *
               *           SCF CONVERGED AFTER  11 CYCLES          *
               *****************************************************

Setting up the final grid:

General Integration Accuracy     IntAcc      ...  4.670
Radial Grid Type                 RadialGrid  ... Gauss-Chebyshev
Angular Grid (max. acc.)         AngularGrid ... Lebedev-302
Angular grid pruning method      GridPruning ... 3 (G Style)
Weight generation scheme         WeightScheme... Becke
Basis function cutoff            BFCut       ...    1.0000e-10
Integration weight cutoff        WCut        ...    1.0000e-14
Grids for H and He will be reduced by one unit

# of grid points (after initial pruning)     ... 161752 (   0.0 sec)
# of grid points (after weights+screening)   ... 143298 (   0.2 sec)
nearest neighbour list constructed           ...    0.0 sec
Grid point re-assignment to atoms done       ...    0.0 sec
Grid point division into batches done        ...    0.5 sec
Reduced shell lists constructed in    0.6 sec

Total number of grid points                  ...   143298
Total number of batches                      ...     2258
Average number of points per batch           ...       63
Average number of grid points per atom       ...     4215
Average number of shells per batch           ...    70.52 (45.79%)
Average number of basis functions per batch  ...   138.80 (43.10%)
Average number of large shells per batch     ...    43.77 (62.07%)
Average number of large basis fcns per batch ...    89.60 (64.56%)
Maximum spatial batch extension              ...  13.96, 13.11, 12.94 au
Average spatial batch extension              ...   0.14,  0.14,  0.14 au

Final grid set up in    1.2 sec
Final integration                            ... done (   0.3 sec)
Change in XC energy                          ...     0.007987783
Integrated number of electrons               ...   134.000244256
Previous integrated no of electrons          ...   133.998065458

----------------
TOTAL SCF ENERGY
----------------

Total Energy       :        -1339.83929694 Eh          -36458.88080 eV

Components:
Nuclear Repulsion  :         1268.04873251 Eh           34505.36023 eV
Electronic Energy  :        -2607.88802944 Eh          -70964.24103 eV
One Electron Energy:        -4352.61520917 Eh         -118440.68125 eV
Two Electron Energy:         1744.72717973 Eh           47476.44022 eV

Virial components:
Potential Energy   :        -2671.94070411 Eh          -72707.20292 eV
Kinetic Energy     :         1332.10140718 Eh           36248.32212 eV
Virial Ratio       :            2.00580878


DFT components:
N(Alpha)           :       67.000122128085 electrons
N(Beta)            :       67.000122128085 electrons
N(Total)           :      134.000244256169 electrons
E(XC)              :      -94.363202237596 Eh       
DFET-embed. en.    :        0.000000000000 Eh       

---------------
SCF CONVERGENCE
---------------

  Last Energy change         ...   -2.2439e-07  Tolerance :   1.0000e-06
  Last MAX-Density change    ...    3.0439e-05  Tolerance :   1.0000e-05
  Last RMS-Density change    ...    7.1615e-07  Tolerance :   1.0000e-06
  Last Orbital Gradient      ...    8.7410e-06  Tolerance :   5.0000e-05
  Last Orbital Rotation      ...    2.5079e-05  Tolerance :   5.0000e-05

             **** THE GBW FILE WAS UPDATED (config_8605.gbw) ****
             **** DENSITY FILE WAS UPDATED (config_8605.scfp) ****
             **** ENERGY FILE WAS UPDATED (config_8605.en.tmp) ****
             **** THE GBW FILE WAS UPDATED (config_8605.gbw) ****
             **** DENSITY FILE WAS UPDATED (config_8605.scfp) ****
----------------
ORBITAL ENERGIES
----------------

  NO   OCC          E(Eh)            E(eV) 
   0   2.0000     -88.965475     -2420.8737 
   1   2.0000     -88.964610     -2420.8501 
   2   2.0000     -10.329623      -281.0833 
   3   2.0000     -10.327843      -281.0349 
   4   2.0000     -10.311439      -280.5885 
   5   2.0000     -10.303618      -280.3757 
   6   2.0000     -10.299644      -280.2676 
   7   2.0000     -10.296646      -280.1860 
   8   2.0000     -10.295123      -280.1446 
   9   2.0000     -10.286832      -279.9189 
  10   2.0000     -10.286159      -279.9006 
  11   2.0000     -10.285831      -279.8917 
  12   2.0000     -10.282875      -279.8113 
  13   2.0000     -10.282267      -279.7947 
  14   2.0000     -10.278348      -279.6881 
  15   2.0000     -10.270308      -279.4693 
  16   2.0000      -8.080663      -219.8860 
  17   2.0000      -8.079615      -219.8575 
  18   2.0000      -6.038928      -164.3276 
  19   2.0000      -6.038153      -164.3065 
  20   2.0000      -6.034866      -164.2171 
  21   2.0000      -6.034409      -164.2046 
  22   2.0000      -6.031721      -164.1315 
  23   2.0000      -6.030176      -164.0894 
  24   2.0000      -1.009745       -27.4766 
  25   2.0000      -0.987561       -26.8729 
  26   2.0000      -0.921301       -25.0699 
  27   2.0000      -0.914502       -24.8849 
  28   2.0000      -0.868974       -23.6460 
  29   2.0000      -0.851831       -23.1795 
  30   2.0000      -0.848330       -23.0842 
  31   2.0000      -0.813935       -22.1483 
  32   2.0000      -0.789916       -21.4947 
  33   2.0000      -0.774891       -21.0859 
  34   2.0000      -0.710833       -19.3427 
  35   2.0000      -0.703770       -19.1506 
  36   2.0000      -0.698585       -19.0095 
  37   2.0000      -0.655899       -17.8479 
  38   2.0000      -0.646723       -17.5982 
  39   2.0000      -0.622123       -16.9288 
  40   2.0000      -0.604365       -16.4456 
  41   2.0000      -0.571613       -15.5544 
  42   2.0000      -0.565152       -15.3786 
  43   2.0000      -0.561524       -15.2798 
  44   2.0000      -0.528630       -14.3848 
  45   2.0000      -0.523927       -14.2568 
  46   2.0000      -0.519419       -14.1341 
  47   2.0000      -0.516459       -14.0536 
  48   2.0000      -0.505454       -13.7541 
  49   2.0000      -0.501321       -13.6416 
  50   2.0000      -0.493514       -13.4292 
  51   2.0000      -0.476190       -12.9578 
  52   2.0000      -0.466035       -12.6815 
  53   2.0000      -0.463767       -12.6198 
  54   2.0000      -0.461520       -12.5586 
  55   2.0000      -0.455191       -12.3864 
  56   2.0000      -0.445375       -12.1193 
  57   2.0000      -0.442000       -12.0274 
  58   2.0000      -0.433668       -11.8007 
  59   2.0000      -0.430630       -11.7180 
  60   2.0000      -0.422134       -11.4869 
  61   2.0000      -0.407766       -11.0959 
  62   2.0000      -0.406858       -11.0712 
  63   2.0000      -0.335187        -9.1209 
  64   2.0000      -0.326730        -8.8908 
  65   2.0000      -0.319914        -8.7053 
  66   2.0000      -0.311561        -8.4780 
  67   0.0000       0.043872         1.1938 
  68   0.0000       0.050861         1.3840 
  69   0.0000       0.106346         2.8938 
  70   0.0000       0.121036         3.2936 
  71   0.0000       0.133309         3.6275 
  72   0.0000       0.142624         3.8810 
  73   0.0000       0.148333         4.0364 
  74   0.0000       0.157768         4.2931 
  75   0.0000       0.165032         4.4907 
  76   0.0000       0.178820         4.8660 
  77   0.0000       0.184101         5.0097 
  78   0.0000       0.188329         5.1247 
  79   0.0000       0.192593         5.2407 
  80   0.0000       0.198784         5.4092 
  81   0.0000       0.205631         5.5955 
  82   0.0000       0.213848         5.8191 
  83   0.0000       0.214827         5.8458 
  84   0.0000       0.225243         6.1292 
  85   0.0000       0.232635         6.3303 
  86   0.0000       0.240510         6.5446 
  87   0.0000       0.244694         6.6585 
  88   0.0000       0.247987         6.7481 
  89   0.0000       0.249314         6.7842 
  90   0.0000       0.261072         7.1041 
  91   0.0000       0.270775         7.3682 
  92   0.0000       0.273431         7.4404 
  93   0.0000       0.306382         8.3371 
  94   0.0000       0.316361         8.6086 
  95   0.0000       0.324387         8.8270 
  96   0.0000       0.328406         8.9364 
  97   0.0000       0.342638         9.3237 
  98   0.0000       0.346008         9.4154 
  99   0.0000       0.349404         9.5078 
 100   0.0000       0.382759        10.4154 
 101   0.0000       0.395524        10.7628 
 102   0.0000       0.418647        11.3920 
 103   0.0000       0.421208        11.4617 
 104   0.0000       0.433606        11.7990 
 105   0.0000       0.444272        12.0893 
 106   0.0000       0.450582        12.2610 
 107   0.0000       0.487542        13.2667 
 108   0.0000       0.492353        13.3976 
 109   0.0000       0.496053        13.4983 
 110   0.0000       0.503762        13.7080 
 111   0.0000       0.506787        13.7904 
 112   0.0000       0.518023        14.0961 
 113   0.0000       0.520215        14.1558 
 114   0.0000       0.529104        14.3976 
 115   0.0000       0.536096        14.5879 
 116   0.0000       0.542064        14.7503 
 117   0.0000       0.560933        15.2638 
 118   0.0000       0.562031        15.2936 
 119   0.0000       0.571268        15.5450 
 120   0.0000       0.584355        15.9011 
 121   0.0000       0.596210        16.2237 
 122   0.0000       0.598824        16.2948 
 123   0.0000       0.612287        16.6612 
 124   0.0000       0.615512        16.7489 
 125   0.0000       0.627141        17.0654 
 126   0.0000       0.631344        17.1797 
 127   0.0000       0.645437        17.5632 
 128   0.0000       0.650602        17.7038 
 129   0.0000       0.661099        17.9894 
 130   0.0000       0.672384        18.2965 
 131   0.0000       0.677542        18.4369 
 132   0.0000       0.688039        18.7225 
 133   0.0000       0.701321        19.0839 
 134   0.0000       0.708863        19.2891 
 135   0.0000       0.714673        19.4472 
 136   0.0000       0.721238        19.6259 
 137   0.0000       0.729643        19.8546 
 138   0.0000       0.735511        20.0143 
 139   0.0000       0.744553        20.2603 
 140   0.0000       0.751278        20.4433 
 141   0.0000       0.756443        20.5839 
 142   0.0000       0.758643        20.6437 
 143   0.0000       0.761369        20.7179 
 144   0.0000       0.766352        20.8535 
 145   0.0000       0.768353        20.9079 
 146   0.0000       0.772011        21.0075 
 147   0.0000       0.777045        21.1445 
 148   0.0000       0.785587        21.3769 
 149   0.0000       0.787947        21.4411 
 150   0.0000       0.789357        21.4795 
 151   0.0000       0.793631        21.5958 
 152   0.0000       0.798483        21.7278 
 153   0.0000       0.802356        21.8332 
 154   0.0000       0.804664        21.8960 
 155   0.0000       0.810748        22.0616 
 156   0.0000       0.813162        22.1273 
 157   0.0000       0.817453        22.2440 
 158   0.0000       0.824322        22.4309 
 159   0.0000       0.826569        22.4921 
 160   0.0000       0.830626        22.6025 
 161   0.0000       0.835627        22.7386 
 162   0.0000       0.839951        22.8562 
 163   0.0000       0.850797        23.1514 
 164   0.0000       0.853701        23.2304 
 165   0.0000       0.865630        23.5550 
 166   0.0000       0.875160        23.8143 
 167   0.0000       0.884753        24.0754 
 168   0.0000       0.893388        24.3103 
 169   0.0000       0.906847        24.6766 
 170   0.0000       0.914169        24.8758 
 171   0.0000       0.921593        25.0778 
 172   0.0000       0.930255        25.3135 
 173   0.0000       0.951487        25.8913 
 174   0.0000       0.963940        26.2302 
 175   0.0000       0.967274        26.3209 
 176   0.0000       0.981448        26.7066 
 177   0.0000       0.998588        27.1730 
 178   0.0000       1.023847        27.8603 
 179   0.0000       1.042140        28.3581 
 180   0.0000       1.059777        28.8380 
 181   0.0000       1.066635        29.0246 
 182   0.0000       1.091387        29.6981 
 183   0.0000       1.103182        30.0191 
 184   0.0000       1.109765        30.1982 
 185   0.0000       1.126951        30.6659 
 186   0.0000       1.132999        30.8305 
 187   0.0000       1.164501        31.6877 
 188   0.0000       1.167836        31.7784 
 189   0.0000       1.199684        32.6450 
 190   0.0000       1.204594        32.7787 
 191   0.0000       1.243578        33.8395 
 192   0.0000       1.260384        34.2968 
 193   0.0000       1.263890        34.3922 
 194   0.0000       1.283161        34.9166 
 195   0.0000       1.288872        35.0720 
 196   0.0000       1.302623        35.4462 
 197   0.0000       1.327528        36.1239 
 198   0.0000       1.359055        36.9818 
 199   0.0000       1.388021        37.7700 
 200   0.0000       1.395918        37.9849 
 201   0.0000       1.401172        38.1278 
 202   0.0000       1.418815        38.6079 
 203   0.0000       1.427758        38.8513 
 204   0.0000       1.443240        39.2725 
 205   0.0000       1.462014        39.7834 
 206   0.0000       1.493152        40.6307 
 207   0.0000       1.509377        41.0722 
 208   0.0000       1.523806        41.4649 
 209   0.0000       1.565173        42.5905 
 210   0.0000       1.588223        43.2177 
 211   0.0000       1.607654        43.7465 
 212   0.0000       1.627787        44.2943 
 213   0.0000       1.639171        44.6041 
 214   0.0000       1.658866        45.1400 
 215   0.0000       1.673777        45.5458 
 216   0.0000       1.686524        45.8926 
 217   0.0000       1.706337        46.4318 
 218   0.0000       1.755556        47.7711 
 219   0.0000       1.773081        48.2480 
 220   0.0000       1.780239        48.4428 
 221   0.0000       1.814928        49.3867 
 222   0.0000       1.820204        49.5303 
 223   0.0000       1.832498        49.8648 
 224   0.0000       1.839601        50.0581 
 225   0.0000       1.858393        50.5695 
 226   0.0000       1.858947        50.5845 
 227   0.0000       1.860537        50.6278 
 228   0.0000       1.866658        50.7944 
 229   0.0000       1.872132        50.9433 
 230   0.0000       1.882323        51.2206 
 231   0.0000       1.884727        51.2860 
 232   0.0000       1.901292        51.7368 
 233   0.0000       1.909919        51.9715 
 234   0.0000       1.918808        52.2134 
 235   0.0000       1.919435        52.2305 
 236   0.0000       1.929530        52.5052 
 237   0.0000       1.937390        52.7191 
 238   0.0000       1.944470        52.9117 
 239   0.0000       1.957001        53.2527 
 240   0.0000       1.960400        53.3452 
 241   0.0000       1.969428        53.5909 
 242   0.0000       1.983138        53.9639 
 243   0.0000       1.987075        54.0711 
 244   0.0000       1.991430        54.1896 
 245   0.0000       1.992665        54.2232 
 246   0.0000       2.007414        54.6245 
 247   0.0000       2.015351        54.8405 
 248   0.0000       2.026175        55.1350 
 249   0.0000       2.044715        55.6395 
 250   0.0000       2.057134        55.9775 
 251   0.0000       2.060726        56.0752 
 252   0.0000       2.077660        56.5360 
 253   0.0000       2.088635        56.8346 
 254   0.0000       2.107448        57.3466 
 255   0.0000       2.116314        57.5878 
 256   0.0000       2.127362        57.8885 
 257   0.0000       2.128929        57.9311 
 258   0.0000       2.167099        58.9698 
 259   0.0000       2.173562        59.1456 
 260   0.0000       2.179419        59.3050 
 261   0.0000       2.185814        59.4790 
 262   0.0000       2.202317        59.9281 
 263   0.0000       2.217018        60.3281 
 264   0.0000       2.228740        60.6471 
 265   0.0000       2.243819        61.0574 
 266   0.0000       2.259028        61.4713 
 267   0.0000       2.286304        62.2135 
 268   0.0000       2.313295        62.9480 
 269   0.0000       2.329126        63.3787 
 270   0.0000       2.353123        64.0317 
 271   0.0000       2.366945        64.4078 
 272   0.0000       2.382285        64.8253 
 273   0.0000       2.398821        65.2752 
 274   0.0000       2.426675        66.0332 
 275   0.0000       2.439740        66.3887 
 276   0.0000       2.456567        66.8466 
 277   0.0000       2.461266        66.9745 
 278   0.0000       2.484646        67.6107 
 279   0.0000       2.492601        67.8271 
 280   0.0000       2.512099        68.3577 
 281   0.0000       2.513271        68.3896 
 282   0.0000       2.540423        69.1284 
 283   0.0000       2.553872        69.4944 
 284   0.0000       2.558351        69.6163 
 285   0.0000       2.570554        69.9483 
 286   0.0000       2.575671        70.0876 
 287   0.0000       2.595387        70.6241 
 288   0.0000       2.606840        70.9357 
 289   0.0000       2.621412        71.3323 
 290   0.0000       2.658145        72.3318 
 291   0.0000       2.679312        72.9078 
 292   0.0000       2.696308        73.3703 
 293   0.0000       2.710042        73.7440 
 294   0.0000       2.726883        74.2023 
 295   0.0000       2.744310        74.6765 
 296   0.0000       2.766548        75.2816 
 297   0.0000       2.786636        75.8282 
 298   0.0000       2.806808        76.3771 
 299   0.0000       2.835301        77.1525 
 300   0.0000       2.854514        77.6753 
 301   0.0000       2.891485        78.6813 
 302   0.0000       2.909116        79.1611 
 303   0.0000       2.940608        80.0180 
 304   0.0000       2.975498        80.9674 
 305   0.0000       2.976343        80.9904 
 306   0.0000       3.019184        82.1562 
 307   0.0000       3.041757        82.7704 
 308   0.0000       3.052331        83.0581 
 309   0.0000       3.055158        83.1351 
 310   0.0000       3.103904        84.4615 
 311   0.0000       3.114317        84.7449 
 312   0.0000       3.128357        85.1269 
 313   0.0000       3.131332        85.2079 
 314   0.0000       3.165207        86.1297 
 315   0.0000       3.168753        86.2262 
 316   0.0000       3.217423        87.5505 
 317   0.0000       3.236323        88.0648 
 318   0.0000       3.260380        88.7195 
 319   0.0000       3.318594        90.3035 
 320   0.0000       3.398464        92.4769 
 321   0.0000       3.447614        93.8143 

                    ********************************
                    * MULLIKEN POPULATION ANALYSIS *
                    ********************************

-----------------------
MULLIKEN ATOMIC CHARGES
-----------------------
   0 S :    0.125600
   1 C :   -0.064009
   2 C :   -0.109183
   3 C :    0.030749
   4 C :   -0.186849
   5 H :    0.018302
   6 C :    0.108417
   7 H :    0.011681
   8 H :   -0.002659
   9 C :   -0.102742
  10 H :    0.028204
  11 H :    0.027656
  12 C :    0.015081
  13 H :    0.020149
  14 H :    0.018621
  15 H :    0.013681
  16 S :    0.107674
  17 C :   -0.070852
  18 C :   -0.052624
  19 C :    0.026237
  20 C :   -0.199797
  21 H :    0.022136
  22 C :    0.082976
  23 H :    0.018095
  24 H :    0.021628
  25 C :   -0.062807
  26 H :    0.018190
  27 H :    0.033096
  28 C :   -0.075633
  29 H :    0.045549
  30 H :    0.021071
  31 H :    0.034925
  32 H :    0.026524
  33 H :    0.050917
Sum of atomic charges:   -0.0000000

--------------------------------
MULLIKEN REDUCED ORBITAL CHARGES
--------------------------------
  0 S s       :     5.840805  s :     5.840805
      pz      :     3.634291  p :     9.914680
      px      :     2.964309
      py      :     3.316080
      dz2     :     0.013048  d :     0.118915
      dxz     :     0.026009
      dyz     :     0.012194
      dx2y2   :     0.019756
      dxy     :     0.047907
  1 C s       :     3.104299  s :     3.104299
      pz      :     1.131602  p :     2.923082
      px      :     0.864633
      py      :     0.926848
      dz2     :     0.003061  d :     0.036628
      dxz     :     0.004891
      dyz     :     0.007903
      dx2y2   :     0.008195
      dxy     :     0.012578
  2 C s       :     3.084273  s :     3.084273
      pz      :     0.976090  p :     2.977519
      px      :     1.004550
      py      :     0.996879
      dz2     :     0.003582  d :     0.047391
      dxz     :     0.007015
      dyz     :     0.009041
      dx2y2   :     0.015007
      dxy     :     0.012747
  3 C s       :     3.197360  s :     3.197360
      pz      :     1.022150  p :     2.739376
      px      :     0.868893
      py      :     0.848332
      dz2     :     0.002738  d :     0.032515
      dxz     :     0.005524
      dyz     :     0.003917
      dx2y2   :     0.009098
      dxy     :     0.011239
  4 C s       :     3.082942  s :     3.082942
      pz      :     1.094470  p :     3.058459
      px      :     1.006991
      py      :     0.956998
      dz2     :     0.003482  d :     0.045449
      dxz     :     0.005288
      dyz     :     0.008242
      dx2y2   :     0.011038
      dxy     :     0.017399
  5 H s       :     0.958095  s :     0.958095
      pz      :     0.005328  p :     0.023603
      px      :     0.006353
      py      :     0.011921
  6 C s       :     2.914674  s :     2.914674
      pz      :     1.024614  p :     2.937986
      px      :     0.947039
      py      :     0.966334
      dz2     :     0.006454  d :     0.038922
      dxz     :     0.008058
      dyz     :     0.009470
      dx2y2   :     0.006209
      dxy     :     0.008730
  7 H s       :     0.963896  s :     0.963896
      pz      :     0.008362  p :     0.024423
      px      :     0.006855
      py      :     0.009205
  8 H s       :     0.977354  s :     0.977354
      pz      :     0.007063  p :     0.025306
      px      :     0.013401
      py      :     0.004841
  9 C s       :     3.084728  s :     3.084728
      pz      :     1.006434  p :     2.981225
      px      :     1.000032
      py      :     0.974759
      dz2     :     0.006074  d :     0.036788
      dxz     :     0.006602
      dyz     :     0.009936
      dx2y2   :     0.006039
      dxy     :     0.008137
 10 H s       :     0.948961  s :     0.948961
      pz      :     0.005762  p :     0.022835
      px      :     0.012008
      py      :     0.005065
 11 H s       :     0.950224  s :     0.950224
      pz      :     0.007692  p :     0.022120
      px      :     0.005216
      py      :     0.009212
 12 C s       :     2.949966  s :     2.949966
      pz      :     1.018462  p :     3.006582
      px      :     0.997571
      py      :     0.990549
      dz2     :     0.005179  d :     0.028370
      dxz     :     0.004182
      dyz     :     0.007407
      dx2y2   :     0.006545
      dxy     :     0.005058
 13 H s       :     0.952767  s :     0.952767
      pz      :     0.014486  p :     0.027084
      px      :     0.005517
      py      :     0.007082
 14 H s       :     0.955095  s :     0.955095
      pz      :     0.007855  p :     0.026284
      px      :     0.012519
      py      :     0.005911
 15 H s       :     0.961737  s :     0.961737
      pz      :     0.008403  p :     0.024581
      px      :     0.005770
      py      :     0.010408
 16 S s       :     5.851460  s :     5.851460
      pz      :     3.282228  p :     9.940400
      px      :     2.987451
      py      :     3.670721
      dz2     :     0.019490  d :     0.100466
      dxz     :     0.036250
      dyz     :     0.010501
      dx2y2   :     0.013995
      dxy     :     0.020230
 17 C s       :     3.121227  s :     3.121227
      pz      :     0.978175  p :     2.912485
      px      :     0.876281
      py      :     1.058028
      dz2     :     0.008365  d :     0.037141
      dxz     :     0.012608
      dyz     :     0.007969
      dx2y2   :     0.004828
      dxy     :     0.003371
 18 C s       :     3.172344  s :     3.172344
      pz      :     0.907271  p :     2.843491
      px      :     0.926291
      py      :     1.009929
      dz2     :     0.009441  d :     0.036789
      dxz     :     0.011080
      dyz     :     0.006780
      dx2y2   :     0.004767
      dxy     :     0.004721
 19 C s       :     3.050440  s :     3.050440
      pz      :     0.928286  p :     2.878371
      px      :     0.966197
      py      :     0.983888
      dz2     :     0.010466  d :     0.044952
      dxz     :     0.014148
      dyz     :     0.008086
      dx2y2   :     0.005229
      dxy     :     0.007024
 20 C s       :     3.102574  s :     3.102574
      pz      :     0.923569  p :     3.054966
      px      :     0.989919
      py      :     1.141478
      dz2     :     0.009332  d :     0.042256
      dxz     :     0.015569
      dyz     :     0.006367
      dx2y2   :     0.006049
      dxy     :     0.004938
 21 H s       :     0.954490  s :     0.954490
      pz      :     0.007554  p :     0.023375
      px      :     0.010220
      py      :     0.005601
 22 C s       :     2.906444  s :     2.906444
      pz      :     0.939756  p :     2.972856
      px      :     1.011391
      py      :     1.021709
      dz2     :     0.011232  d :     0.037725
      dxz     :     0.005458
      dyz     :     0.008044
      dx2y2   :     0.009567
      dxy     :     0.003424
 23 H s       :     0.959057  s :     0.959057
      pz      :     0.003860  p :     0.022849
      px      :     0.013146
      py      :     0.005843
 24 H s       :     0.951776  s :     0.951776
      pz      :     0.005168  p :     0.026595
      px      :     0.007275
      py      :     0.014152
 25 C s       :     3.036032  s :     3.036032
      pz      :     0.955151  p :     2.989203
      px      :     1.017785
      py      :     1.016268
      dz2     :     0.009887  d :     0.037572
      dxz     :     0.006073
      dyz     :     0.007161
      dx2y2   :     0.011808
      dxy     :     0.002643
 26 H s       :     0.957744  s :     0.957744
      pz      :     0.004339  p :     0.024066
      px      :     0.014286
      py      :     0.005441
 27 H s       :     0.944971  s :     0.944971
      pz      :     0.003413  p :     0.021933
      px      :     0.005058
      py      :     0.013461
 28 C s       :     3.028627  s :     3.028627
      pz      :     0.954592  p :     3.019087
      px      :     1.027807
      py      :     1.036688
      dz2     :     0.005914  d :     0.027919
      dxz     :     0.005535
      dyz     :     0.007815
      dx2y2   :     0.005273
      dxy     :     0.003382
 29 H s       :     0.931023  s :     0.931023
      pz      :     0.005056  p :     0.023428
      px      :     0.006617
      py      :     0.011755
 30 H s       :     0.955789  s :     0.955789
      pz      :     0.007393  p :     0.023140
      px      :     0.006858
      py      :     0.008890
 31 H s       :     0.940725  s :     0.940725
      pz      :     0.005028  p :     0.024350
      px      :     0.013863
      py      :     0.005460
 32 H s       :     0.946289  s :     0.946289
      pz      :     0.008089  p :     0.027187
      px      :     0.013356
      py      :     0.005742
 33 H s       :     0.925655  s :     0.925655
      pz      :     0.004957  p :     0.023428
      px      :     0.013354
      py      :     0.005117


                     *******************************
                     * LOEWDIN POPULATION ANALYSIS *
                     *******************************

----------------------
LOEWDIN ATOMIC CHARGES
----------------------
   0 S :    0.448959
   1 C :   -0.206002
   2 C :   -0.053694
   3 C :   -0.063217
   4 C :   -0.222921
   5 H :    0.032566
   6 C :   -0.033118
   7 H :    0.029836
   8 H :    0.019095
   9 C :   -0.028816
  10 H :    0.021151
  11 H :    0.026619
  12 C :   -0.055892
  13 H :    0.018678
  14 H :    0.018891
  15 H :    0.025203
  16 S :    0.386430
  17 C :   -0.184581
  18 C :   -0.076366
  19 C :   -0.046234
  20 C :   -0.184807
  21 H :    0.033839
  22 C :   -0.040848
  23 H :    0.041469
  24 H :    0.029135
  25 C :   -0.040273
  26 H :    0.018611
  27 H :    0.031342
  28 C :   -0.077765
  29 H :    0.029545
  30 H :    0.031913
  31 H :    0.027744
  32 H :    0.010952
  33 H :    0.032556

-------------------------------
LOEWDIN REDUCED ORBITAL CHARGES
-------------------------------
  0 S s       :     5.475066  s :     5.475066
      pz      :     3.587432  p :     9.926669
      px      :     2.970932
      py      :     3.368305
      dz2     :     0.016662  d :     0.149307
      dxz     :     0.032197
      dyz     :     0.012317
      dx2y2   :     0.024621
      dxy     :     0.063510
  1 C s       :     2.913912  s :     2.913912
      pz      :     1.129197  p :     3.204169
      px      :     1.022856
      py      :     1.052116
      dz2     :     0.005848  d :     0.087922
      dxz     :     0.009655
      dyz     :     0.016211
      dx2y2   :     0.022665
      dxy     :     0.033542
  2 C s       :     2.849933  s :     2.849933
      pz      :     0.955270  p :     3.085196
      px      :     1.054496
      py      :     1.075430
      dz2     :     0.007952  d :     0.118566
      dxz     :     0.014424
      dyz     :     0.018782
      dx2y2   :     0.042850
      dxy     :     0.034557
  3 C s       :     2.877035  s :     2.877035
      pz      :     1.028078  p :     3.100163
      px      :     1.027679
      py      :     1.044406
      dz2     :     0.006357  d :     0.086018
      dxz     :     0.011796
      dyz     :     0.007372
      dx2y2   :     0.027620
      dxy     :     0.032873
  4 C s       :     2.913374  s :     2.913374
      pz      :     1.076611  p :     3.201261
      px      :     1.053302
      py      :     1.071348
      dz2     :     0.007545  d :     0.108286
      dxz     :     0.011069
      dyz     :     0.016511
      dx2y2   :     0.029602
      dxy     :     0.043559
  5 H s       :     0.897148  s :     0.897148
      pz      :     0.016049  p :     0.070286
      px      :     0.019588
      py      :     0.034649
  6 C s       :     2.799809  s :     2.799809
      pz      :     1.053590  p :     3.133093
      px      :     1.046647
      py      :     1.032856
      dz2     :     0.016162  d :     0.100216
      dxz     :     0.019135
      dyz     :     0.024242
      dx2y2   :     0.016334
      dxy     :     0.024344
  7 H s       :     0.901009  s :     0.901009
      pz      :     0.024550  p :     0.069155
      px      :     0.018363
      py      :     0.026243
  8 H s       :     0.905177  s :     0.905177
      pz      :     0.022014  p :     0.075729
      px      :     0.037636
      py      :     0.016079
  9 C s       :     2.839780  s :     2.839780
      pz      :     1.038579  p :     3.101511
      px      :     1.038987
      py      :     1.023944
      dz2     :     0.014862  d :     0.087524
      dxz     :     0.014236
      dyz     :     0.024087
      dx2y2   :     0.012869
      dxy     :     0.021471
 10 H s       :     0.910038  s :     0.910038
      pz      :     0.018370  p :     0.068810
      px      :     0.034805
      py      :     0.015635
 11 H s       :     0.908437  s :     0.908437
      pz      :     0.022920  p :     0.064944
      px      :     0.014947
      py      :     0.027077
 12 C s       :     2.811829  s :     2.811829
      pz      :     1.079601  p :     3.171640
      px      :     1.052269
      py      :     1.039770
      dz2     :     0.014491  d :     0.072423
      dxz     :     0.010677
      dyz     :     0.018116
      dx2y2   :     0.014128
      dxy     :     0.015012
 13 H s       :     0.902801  s :     0.902801
      pz      :     0.039435  p :     0.078521
      px      :     0.017142
      py      :     0.021944
 14 H s       :     0.906667  s :     0.906667
      pz      :     0.021344  p :     0.074442
      px      :     0.035671
      py      :     0.017427
 15 H s       :     0.907987  s :     0.907987
      pz      :     0.021132  p :     0.066810
      px      :     0.015869
      py      :     0.029810
 16 S s       :     5.533788  s :     5.533788
      pz      :     3.319241  p :     9.956851
      px      :     3.005998
      py      :     3.631612
      dz2     :     0.021723  d :     0.122931
      dxz     :     0.046814
      dyz     :     0.010983
      dx2y2   :     0.018382
      dxy     :     0.025029
 17 C s       :     2.923467  s :     2.923467
      pz      :     1.090761  p :     3.173723
      px      :     1.023754
      py      :     1.059208
      dz2     :     0.023585  d :     0.087391
      dxz     :     0.031849
      dyz     :     0.015636
      dx2y2   :     0.010105
      dxy     :     0.006217
 18 C s       :     2.858237  s :     2.858237
      pz      :     1.072266  p :     3.121767
      px      :     1.038127
      py      :     1.011374
      dz2     :     0.029002  d :     0.096362
      dxz     :     0.031478
      dyz     :     0.014364
      dx2y2   :     0.011646
      dxy     :     0.009872
 19 C s       :     2.853060  s :     2.853060
      pz      :     1.050841  p :     3.080326
      px      :     1.055692
      py      :     0.973794
      dz2     :     0.029629  d :     0.112848
      dxz     :     0.039420
      dyz     :     0.015358
      dx2y2   :     0.013406
      dxy     :     0.015034
 20 C s       :     2.916360  s :     2.916360
      pz      :     1.016168  p :     3.167989
      px      :     1.037309
      py      :     1.114512
      dz2     :     0.023776  d :     0.100457
      dxz     :     0.038443
      dyz     :     0.012637
      dx2y2   :     0.014864
      dxy     :     0.010737
 21 H s       :     0.897555  s :     0.897555
      pz      :     0.021611  p :     0.068606
      px      :     0.030204
      py      :     0.016790
 22 C s       :     2.806449  s :     2.806449
      pz      :     1.010427  p :     3.137990
      px      :     1.049176
      py      :     1.078386
      dz2     :     0.029425  d :     0.096410
      dxz     :     0.014370
      dyz     :     0.020733
      dx2y2   :     0.023150
      dxy     :     0.008731
 23 H s       :     0.895510  s :     0.895510
      pz      :     0.011777  p :     0.063021
      px      :     0.036467
      py      :     0.014776
 24 H s       :     0.891233  s :     0.891233
      pz      :     0.018042  p :     0.079631
      px      :     0.021083
      py      :     0.040506
 25 C s       :     2.823848  s :     2.823848
      pz      :     1.010423  p :     3.124228
      px      :     1.062972
      py      :     1.050833
      dz2     :     0.025274  d :     0.092197
      dxz     :     0.014215
      dyz     :     0.017010
      dx2y2   :     0.029144
      dxy     :     0.006554
 26 H s       :     0.910337  s :     0.910337
      pz      :     0.014907  p :     0.071052
      px      :     0.040761
      py      :     0.015384
 27 H s       :     0.904921  s :     0.904921
      pz      :     0.012141  p :     0.063737
      px      :     0.013511
      py      :     0.038085
 28 C s       :     2.842991  s :     2.842991
      pz      :     1.009315  p :     3.164582
      px      :     1.075342
      py      :     1.079925
      dz2     :     0.016819  d :     0.070192
      dxz     :     0.012481
      dyz     :     0.018421
      dx2y2   :     0.013546
      dxy     :     0.008925
 29 H s       :     0.904033  s :     0.904033
      pz      :     0.015651  p :     0.066422
      px      :     0.018723
      py      :     0.032049
 30 H s       :     0.905670  s :     0.905670
      pz      :     0.022264  p :     0.062417
      px      :     0.016621
      py      :     0.023532
 31 H s       :     0.903301  s :     0.903301
      pz      :     0.015420  p :     0.068955
      px      :     0.038600
      py      :     0.014935
 32 H s       :     0.902041  s :     0.902041
      pz      :     0.027982  p :     0.087007
      px      :     0.040648
      py      :     0.018377
 33 H s       :     0.895062  s :     0.895062
      pz      :     0.014873  p :     0.072381
      px      :     0.041135
      py      :     0.016373


                      *****************************
                      * MAYER POPULATION ANALYSIS *
                      *****************************

  NA   - Mulliken gross atomic population
  ZA   - Total nuclear charge
  QA   - Mulliken gross atomic charge
  VA   - Mayer's total valence
  BVA  - Mayer's bonded valence
  FA   - Mayer's free valence

  ATOM       NA         ZA         QA         VA         BVA        FA
  0 S     15.8744    16.0000     0.1256     2.5467     2.5467     0.0000
  1 C      6.0640     6.0000    -0.0640     3.8266     3.8266    -0.0000
  2 C      6.1092     6.0000    -0.1092     4.0467     4.0467    -0.0000
  3 C      5.9693     6.0000     0.0307     3.8926     3.8926     0.0000
  4 C      6.1868     6.0000    -0.1868     3.9073     3.9073    -0.0000
  5 H      0.9817     1.0000     0.0183     1.0043     1.0043     0.0000
  6 C      5.8916     6.0000     0.1084     3.9684     3.9684    -0.0000
  7 H      0.9883     1.0000     0.0117     0.9836     0.9836     0.0000
  8 H      1.0027     1.0000    -0.0027     0.9946     0.9946     0.0000
  9 C      6.1027     6.0000    -0.1027     4.0858     4.0858    -0.0000
 10 H      0.9718     1.0000     0.0282     0.9861     0.9861    -0.0000
 11 H      0.9723     1.0000     0.0277     0.9814     0.9814     0.0000
 12 C      5.9849     6.0000     0.0151     3.9875     3.9875    -0.0000
 13 H      0.9799     1.0000     0.0201     0.9927     0.9927    -0.0000
 14 H      0.9814     1.0000     0.0186     0.9950     0.9950     0.0000
 15 H      0.9863     1.0000     0.0137     0.9898     0.9898    -0.0000
 16 S     15.8923    16.0000     0.1077     2.4404     2.4404    -0.0000
 17 C      6.0709     6.0000    -0.0709     3.8531     3.8531    -0.0000
 18 C      6.0526     6.0000    -0.0526     3.9796     3.9796    -0.0000
 19 C      5.9738     6.0000     0.0262     4.0028     4.0028    -0.0000
 20 C      6.1998     6.0000    -0.1998     3.9070     3.9070    -0.0000
 21 H      0.9779     1.0000     0.0221     0.9939     0.9939    -0.0000
 22 C      5.9170     6.0000     0.0830     3.9286     3.9286     0.0000
 23 H      0.9819     1.0000     0.0181     0.9908     0.9908     0.0000
 24 H      0.9784     1.0000     0.0216     0.9991     0.9991     0.0000
 25 C      6.0628     6.0000    -0.0628     4.0822     4.0822    -0.0000
 26 H      0.9818     1.0000     0.0182     0.9847     0.9847    -0.0000
 27 H      0.9669     1.0000     0.0331     0.9779     0.9779    -0.0000
 28 C      6.0756     6.0000    -0.0756     4.0065     4.0065    -0.0000
 29 H      0.9545     1.0000     0.0455     0.9863     0.9863     0.0000
 30 H      0.9789     1.0000     0.0211     0.9810     0.9810     0.0000
 31 H      0.9651     1.0000     0.0349     0.9880     0.9880    -0.0000
 32 H      0.9735     1.0000     0.0265     1.0088     1.0088     0.0000
 33 H      0.9491     1.0000     0.0509     0.9953     0.9953     0.0000

  Mayer bond orders larger than 0.100000
B(  0-S ,  1-C ) :   1.1475 B(  0-S ,  4-C ) :   1.2055 B(  1-C ,  2-C ) :   1.5889 
B(  1-C ,  4-C ) :   0.1013 B(  1-C , 32-H ) :   0.9624 B(  2-C ,  3-C ) :   1.2504 
B(  2-C ,  6-C ) :   1.0622 B(  3-C ,  4-C ) :   1.5359 B(  3-C ,  5-H ) :   0.9938 
B(  4-C , 20-C ) :   1.0054 B(  6-C ,  7-H ) :   0.9224 B(  6-C ,  8-H ) :   0.9388 
B(  6-C ,  9-C ) :   1.0626 B(  9-C , 10-H ) :   0.9566 B(  9-C , 11-H ) :   0.9564 
B(  9-C , 12-C ) :   1.0788 B( 12-C , 13-H ) :   0.9736 B( 12-C , 14-H ) :   0.9743 
B( 12-C , 15-H ) :   0.9717 B( 16-S , 17-C ) :   1.1337 B( 16-S , 20-C ) :   1.1344 
B( 17-C , 18-C ) :   1.6665 B( 17-C , 33-H ) :   0.9576 B( 18-C , 19-C ) :   1.2045 
B( 18-C , 21-H ) :   0.9841 B( 19-C , 20-C ) :   1.6149 B( 19-C , 22-C ) :   1.0571 
B( 22-C , 23-H ) :   0.9120 B( 22-C , 24-H ) :   0.9369 B( 22-C , 25-C ) :   1.0496 
B( 25-C , 26-H ) :   0.9590 B( 25-C , 27-H ) :   0.9507 B( 25-C , 28-C ) :   1.0897 
B( 28-C , 29-H ) :   0.9747 B( 28-C , 30-H ) :   0.9687 B( 28-C , 31-H ) :   0.9723 


-------
TIMINGS
-------

Total SCF time: 0 days 0 hours 0 min 30 sec 

Total time                  ....      30.758 sec
Sum of individual times     ....      29.681 sec  ( 96.5%)

Fock matrix formation       ....      27.527 sec  ( 89.5%)
  XC integration            ....       2.066 sec  (  7.5% of F)
    Basis function eval.    ....       0.218 sec  ( 10.6% of XC)
    Density eval.           ....       0.162 sec  (  7.9% of XC)
    XC-Functional eval.     ....       0.208 sec  ( 10.1% of XC)
    XC-Potential eval.      ....       0.185 sec  (  9.0% of XC)
Diagonalization             ....       0.135 sec  (  0.4%)
Density matrix formation    ....       0.050 sec  (  0.2%)
Population analysis         ....       0.046 sec  (  0.2%)
Initial guess               ....       0.230 sec  (  0.7%)
Orbital Transformation      ....       0.000 sec  (  0.0%)
Orbital Orthonormalization  ....       0.000 sec  (  0.0%)
DIIS solution               ....       0.165 sec  (  0.5%)
SOSCF solution              ....       0.166 sec  (  0.5%)
Grid generation             ....       1.361 sec  (  4.4%)


-------------------------------------------------------------------------------
                          DFT DISPERSION CORRECTION                            
                                                                               
                              DFTD3 V3.1  Rev 1                                
                              USING zero damping                               
-------------------------------------------------------------------------------
The omegaB97X-D3 functional is recognized. Fit by Chai et al.
Active option DFTDOPT                   ...         3   

molecular C6(AA) [au] = 14158.261127 


            DFT-D V3
 parameters
 s6 scaling factor         :     1.0000 
 rs6 scaling factor        :     1.2810 
 s8 scaling factor         :     1.0000 
 rs8 scaling factor        :     1.0940 
 Damping factor alpha6     :    14.0000 
 Damping factor alpha8     :    16.0000 
 ad hoc parameters k1-k3   :    16.0000     1.3333    -4.0000 

 Edisp/kcal,au: -8.507285165189  -0.013557220424 
 E6   /kcal   :  -3.749557786 
 E8   /kcal   :  -4.757727380 
 % E8         :  55.925330904 

-------------------------   ----------------
Dispersion correction           -0.013557220
-------------------------   ----------------


-------------------------   --------------------
FINAL SINGLE POINT ENERGY     -1339.852854156650
-------------------------   --------------------


                            ***************************************
                            *     ORCA property calculations      *
                            ***************************************

                                    ---------------------
                                    Active property flags
                                    ---------------------
   (+) Dipole Moment


------------------------------------------------------------------------------
                       ORCA ELECTRIC PROPERTIES CALCULATION
------------------------------------------------------------------------------

Dipole Moment Calculation                       ... on
Quadrupole Moment Calculation                   ... off
Polarizability Calculation                      ... off
GBWName                                         ... config_8605.gbw
Electron density file                           ... config_8605.scfp
The origin for moment calculation is the CENTER OF MASS  = (-181.375510, 78.653680 237.593965)

-------------
DIPOLE MOMENT
-------------
                                X             Y             Z
Electronic contribution:     -8.69939      15.77333      20.01461
Nuclear contribution   :      8.69184     -16.15015     -20.32157
                        -----------------------------------------
Total Dipole Moment    :     -0.00755      -0.37682      -0.30696
                        -----------------------------------------
Magnitude (a.u.)       :      0.48608
Magnitude (Debye)      :      1.23551



--------------------
Rotational spectrum 
--------------------
 
Rotational constants in cm-1:     0.017388     0.007890     0.006447 
Rotational constants in MHz :   521.290127   236.546567   193.265939 

 Dipole components along the rotational axes: 
x,y,z [a.u.] :     0.063115    -0.409783    -0.253701 
x,y,z [Debye]:     0.160424    -1.041586    -0.644857 

 

Timings for individual modules:

Sum of individual times         ...       31.942 sec (=   0.532 min)
GTO integral calculation        ...        0.791 sec (=   0.013 min)   2.5 %
SCF iterations                  ...       31.151 sec (=   0.519 min)  97.5 %
                             ****ORCA TERMINATED NORMALLY****
TOTAL RUN TIME: 0 days 0 hours 0 minutes 32 seconds 863 msec
