
                                 *****************
                                 * O   R   C   A *
                                 *****************

           --- An Ab Initio, DFT and Semiempirical electronic structure package ---

                  #######################################################
                  #                        -***-                        #
                  #          Department of theory and spectroscopy      #
                  #               Directorship: Frank Neese             #
                  #        Max Planck Institute fuer Kohlenforschung    #
                  #                Kaiser Wilhelm Platz 1               #
                  #                 D-45470 Muelheim/Ruhr               #
                  #                      Germany                        #
                  #                                                     #
                  #                  All rights reserved                #
                  #                        -***-                        #
                  #######################################################


                         Program Version 4.2.1 -  RELEASE  -


 With contributions from (in alphabetic order):
   Daniel Aravena         : Magnetic Suceptibility
   Michael Atanasov       : Ab Initio Ligand Field Theory (pilot matlab implementation)
   Alexander A. Auer      : GIAO ZORA, VPT2
   Ute Becker             : Parallelization
   Giovanni Bistoni       : ED, misc. LED, open-shell LED, HFLD
   Martin Brehm           : Molecular dynamics
   Dmytro Bykov           : SCF Hessian
   Vijay G. Chilkuri      : MRCI spin determinant printing, contributions to CSF-ICE
   Dipayan Datta          : RHF DLPNO-CCSD density
   Achintya Kumar Dutta   : EOM-CC, STEOM-CC
   Dmitry Ganyushin       : Spin-Orbit,Spin-Spin,Magnetic field MRCI
   Miquel Garcia          : C-PCM Hessian, Gaussian charge scheme
   Yang Guo               : DLPNO-NEVPT2, CIM, IAO-localization
   Andreas Hansen         : Spin unrestricted coupled pair/coupled cluster methods
   Benjamin Helmich-Paris : CASSCF linear response (MC-RPA)
   Lee Huntington         : MR-EOM, pCC
   Robert Izsak           : Overlap fitted RIJCOSX, COSX-SCS-MP3, EOM
   Christian Kollmar      : KDIIS, OOCD, Brueckner-CCSD(T), CCSD density
   Simone Kossmann        : Meta GGA functionals, TD-DFT gradient, OOMP2, MP2 Hessian
   Martin Krupicka        : AUTO-CI
   Lucas Lang             : DCDCAS
   Dagmar Lenk            : GEPOL surface, SMD
   Dimitrios Liakos       : Extrapolation schemes; Compound Job, initial MDCI parallelization
   Dimitrios Manganas     : Further ROCIS development; embedding schemes
   Dimitrios Pantazis     : SARC Basis sets
   Taras Petrenko         : DFT Hessian,TD-DFT gradient, ASA, ECA, R-Raman, ABS, FL, XAS/XES, NRVS
   Peter Pinski           : DLPNO-MP2, DLPNO-MP2 Gradient
   Christoph Reimann      : Effective Core Potentials
   Marius Retegan         : Local ZFS, SOC
   Christoph Riplinger    : Optimizer, TS searches, QM/MM, DLPNO-CCSD(T), (RO)-DLPNO pert. Triples
   Tobias Risthaus        : Range-separated hybrids, TD-DFT gradient, RPA, STAB
   Michael Roemelt        : Original ROCIS implementation
   Masaaki Saitow         : Open-shell DLPNO-CCSD energy and density
   Barbara Sandhoefer     : DKH picture change effects
   Avijit Sen             : IP-ROCIS
   Kantharuban Sivalingam : CASSCF convergence, NEVPT2, FIC-MRCI
   Bernardo de Souza      : ESD, SOC TD-DFT
   Georgi Stoychev        : AutoAux, RI-MP2 NMR
   Willem Van den Heuvel  : Paramagnetic NMR
   Boris Wezisla          : Elementary symmetry handling
   Frank Wennmohs         : Technical directorship


 We gratefully acknowledge several colleagues who have allowed us to
 interface, adapt or use parts of their codes:
   Stefan Grimme, W. Hujo, H. Kruse,             : VdW corrections, initial TS optimization,
                  C. Bannwarth                     DFT functionals, gCP, sTDA/sTD-DF
   Ed Valeev, F. Pavosevic, A. Kumar             : LibInt (2-el integral package), F12 methods
   Garnet Chan, S. Sharma, J. Yang, R. Olivares  : DMRG
   Ulf Ekstrom                                   : XCFun DFT Library
   Mihaly Kallay                                 : mrcc  (arbitrary order and MRCC methods)
   Andreas Klamt, Michael Diedenhofen            : otool_cosmo (COSMO solvation model)
   Jiri Pittner, Ondrej Demel                    : Mk-CCSD
   Frank Weinhold                                : gennbo (NPA and NBO analysis)
   Christopher J. Cramer and Donald G. Truhlar   : smd solvation model
   Lars Goerigk                                  : TD-DFT with DH, B97 family of functionals
   V. Asgeirsson, H. Jonsson                     : NEB implementation
   FAccTs GmbH                                   : IRC, NEB, NEB-TS, Multilevel, MM, QM/MM, CI optimization
   S Lehtola, MJT Oliveira, MAL Marques          : LibXC Library


 Your calculation uses the libint2 library for the computation of 2-el integrals
 For citations please refer to: http://libint.valeyev.net

 Your ORCA version has been built with support for libXC version: 4.2.3
 For citations please refer to: https://tddft.org/programs/libxc/

 This ORCA versions uses:
   CBLAS   interface :  Fast vector & matrix operations
   LAPACKE interface :  Fast linear algebra routines
   SCALAPACK package :  Parallel linear algebra routines


Your calculation utilizes the atom-pairwise dispersion correction
with the zero-damping scheme (D30)
Cite in your paper:
S.Grimme, J.Antony, S.Ehrlich and H.Krieg, J.Chem.Phys., 132, (2010), 154104 
   

XCFun DFT library Copyright 2009-2010 Ulf Ekstrom and contributors.
See http://admol.org/xcfun for more information. This is free soft-
ware; see the source code for copying conditions. There is ABSOLUTELY
NO WARRANTY; not even for MERCHANTABILITY or FITNESS FOR A PARTICULAR
PURPOSE. For details see the documentation. Scientific users of this 
library should cite U. Ekstrom, L. Visscher, R. Bast, A. J. Thorvald-
sen and K. Ruud; J.Chem.Theor.Comp. 2010, DOI: 10.1021/ct100117s
XCFun Version 0.99 
----- Orbital basis set information -----
Your calculation utilizes the basis: def2-SVP
   F. Weigend and R. Ahlrichs, Phys. Chem. Chem. Phys. 7, 3297 (2005).

================================================================================
                                        WARNINGS
                       Please study these warnings very carefully!
================================================================================


INFO   : the flag for use of LIBINT has been found!

================================================================================
                                       INPUT FILE
================================================================================
NAME = config_7592.inp
|  1> ! wB97X-D3 SP def2-SVP
|  2> %pal
|  3> nprocs 16
|  4> end
|  5> 
|  6> * xyz 0 1
|  7> S 	 -33.2541 	 63.7813 	 111.577 	 
|  8> C 	 -33.4208 	 62.2107 	 112.35 	 
|  9> C 	 -34.3121 	 61.2973 	 111.689 	 
| 10> C 	 -35.0597 	 62.0551 	 110.712 	 
| 11> C 	 -34.5715 	 63.3435 	 110.608 	 
| 12> H 	 -35.8659 	 61.5912 	 110.048 	 
| 13> C 	 -34.6616 	 59.8679 	 112.121 	 
| 14> H 	 -35.3442 	 59.4579 	 111.384 	 
| 15> H 	 -35.186 	 59.9192 	 113.077 	 
| 16> C 	 -33.5741 	 58.9514 	 112.576 	 
| 17> H 	 -32.7879 	 59.5404 	 113.116 	 
| 18> H 	 -34.055 	 58.194 	 113.162 	 
| 19> C 	 -32.8452 	 58.4013 	 111.399 	 
| 20> H 	 -31.9648 	 57.7061 	 111.69 	 
| 21> H 	 -33.5727 	 57.8375 	 110.717 	 
| 22> H 	 -32.507 	 59.2667 	 110.778 	 
| 23> S 	 -34.4841 	 64.2147 	 107.973 	 
| 24> C 	 -35.6425 	 65.4077 	 107.457 	 
| 25> C 	 -36.523 	 65.6901 	 108.458 	 
| 26> C 	 -36.2653 	 65.0024 	 109.689 	 
| 27> C 	 -35.0926 	 64.2716 	 109.632 	 
| 28> H 	 -37.44 	 66.3112 	 108.189 	 
| 29> C 	 -37.2442 	 64.9951 	 110.873 	 
| 30> H 	 -36.5911 	 65.0165 	 111.715 	 
| 31> H 	 -37.6185 	 64.0204 	 111.113 	 
| 32> C 	 -38.3726 	 66.0805 	 110.984 	 
| 33> H 	 -38.0107 	 67.0196 	 110.559 	 
| 34> H 	 -38.6881 	 66.1834 	 111.994 	 
| 35> C 	 -39.6734 	 65.6379 	 110.154 	 
| 36> H 	 -39.9895 	 64.6238 	 110.396 	 
| 37> H 	 -39.4815 	 65.7721 	 109.034 	 
| 38> H 	 -40.5884 	 66.1396 	 110.451 	 
| 39> H 	 -32.8566 	 62.0034 	 113.215 	 
| 40> H 	 -35.7959 	 65.6292 	 106.421 	 
| 41> *
| 42> 
| 43>                          ****END OF INPUT****
================================================================================

                       ****************************
                       * Single Point Calculation *
                       ****************************

---------------------------------
CARTESIAN COORDINATES (ANGSTROEM)
---------------------------------
  S    -33.254100   63.781300  111.577000
  C    -33.420800   62.210700  112.350000
  C    -34.312100   61.297300  111.689000
  C    -35.059700   62.055100  110.712000
  C    -34.571500   63.343500  110.608000
  H    -35.865900   61.591200  110.048000
  C    -34.661600   59.867900  112.121000
  H    -35.344200   59.457900  111.384000
  H    -35.186000   59.919200  113.077000
  C    -33.574100   58.951400  112.576000
  H    -32.787900   59.540400  113.116000
  H    -34.055000   58.194000  113.162000
  C    -32.845200   58.401300  111.399000
  H    -31.964800   57.706100  111.690000
  H    -33.572700   57.837500  110.717000
  H    -32.507000   59.266700  110.778000
  S    -34.484100   64.214700  107.973000
  C    -35.642500   65.407700  107.457000
  C    -36.523000   65.690100  108.458000
  C    -36.265300   65.002400  109.689000
  C    -35.092600   64.271600  109.632000
  H    -37.440000   66.311200  108.189000
  C    -37.244200   64.995100  110.873000
  H    -36.591100   65.016500  111.715000
  H    -37.618500   64.020400  111.113000
  C    -38.372600   66.080500  110.984000
  H    -38.010700   67.019600  110.559000
  H    -38.688100   66.183400  111.994000
  C    -39.673400   65.637900  110.154000
  H    -39.989500   64.623800  110.396000
  H    -39.481500   65.772100  109.034000
  H    -40.588400   66.139600  110.451000
  H    -32.856600   62.003400  113.215000
  H    -35.795900   65.629200  106.421000

----------------------------
CARTESIAN COORDINATES (A.U.)
----------------------------
  NO LB      ZA    FRAG     MASS         X           Y           Z
   0 S    16.0000    0    32.060  -62.841142  120.529189  210.849973
   1 C     6.0000    0    12.011  -63.156159  117.561186  212.310731
   2 C     6.0000    0    12.011  -64.840472  115.835110  211.061622
   3 C     6.0000    0    12.011  -66.253231  117.267144  209.215360
   4 C     6.0000    0    12.011  -65.330667  119.701867  209.018828
   5 H     1.0000    0     1.008  -67.776729  116.390500  207.960582
   6 C     6.0000    0    12.011  -65.500931  113.133935  211.877984
   7 H     1.0000    0     1.008  -66.790858  112.359147  210.485256
   8 H     1.0000    0     1.008  -66.491904  113.230878  213.684562
   9 C     6.0000    0    12.011  -63.445854  111.402001  212.737809
  10 H     1.0000    0     1.008  -61.960152  112.515050  213.758261
  11 H     1.0000    0     1.008  -64.354623  109.970723  213.845189
  12 C     6.0000    0    12.011  -62.068433  110.362463  210.513602
  13 H     1.0000    0     1.008  -60.404718  109.048725  211.063512
  14 H     1.0000    0     1.008  -63.443209  109.297035  209.224808
  15 H     1.0000    0     1.008  -61.429327  111.997832  209.340082
  16 S    16.0000    0    32.060  -65.165505  121.348197  204.039400
  17 C     6.0000    0    12.011  -67.354564  123.602640  203.064301
  18 C     6.0000    0    12.011  -69.018468  124.136299  204.955917
  19 C     6.0000    0    12.011  -68.531485  122.836734  207.282170
  20 C     6.0000    0    12.011  -66.315403  121.455722  207.174456
  21 H     1.0000    0     1.008  -70.751346  125.310008  204.447581
  22 C     6.0000    0    12.011  -70.381338  122.822939  209.519606
  23 H     1.0000    0     1.008  -69.147158  122.863379  211.110755
  24 H     1.0000    0     1.008  -71.088663  120.981023  209.973140
  25 C     6.0000    0    12.011  -72.513705  124.874048  209.729365
  26 H     1.0000    0     1.008  -71.829813  126.648690  208.926232
  27 H     1.0000    0     1.008  -73.109914  125.068501  211.637989
  28 C     6.0000    0    12.011  -74.971861  124.037655  208.160893
  29 H     1.0000    0     1.008  -75.569203  122.121284  208.618206
  30 H     1.0000    0     1.008  -74.609222  124.291256  206.044399
  31 H     1.0000    0     1.008  -76.700960  124.985731  208.722141
  32 H     1.0000    0     1.008  -62.089976  117.169445  213.945344
  33 H     1.0000    0     1.008  -67.644448  124.021214  201.106545

--------------------------------
INTERNAL COORDINATES (ANGSTROEM)
--------------------------------
 S      0   0   0     0.000000000000     0.00000000     0.00000000
 C      1   0   0     1.758437445575     0.00000000     0.00000000
 C      2   1   0     1.437232148959   115.10352580     0.00000000
 C      3   2   1     1.444886016266   107.36991181   347.35851546
 C      4   3   2     1.381712632931   110.92400391     7.55289301
 H      4   3   2     1.142828792952   123.02319237   181.40767916
 C      3   2   1     1.533609666767   127.16548979   180.12804415
 H      7   3   2     1.084993898600   107.71231557   181.32491430
 H      7   3   2     1.091587399158   108.20257166    64.70600323
 C      7   3   2     1.493202431019   119.46777912   315.97982432
 H     10   7   3     1.120995735942   109.57712842    34.17023857
 H     10   7   3     1.071594872142   105.87929991   158.75216502
 C     10   7   3     1.489709441468   110.01392181   281.15423999
 H     13  10   7     1.158916821864   113.25508631   178.19832841
 H     13  10   7     1.145535110767   109.96153498   301.29041784
 H     13  10   7     1.117558678549   107.52699690    53.94986339
 S      5   4   3     2.776662240893   112.03167157   139.25496897
 C     17   5   4     1.741090336542   118.37831515   107.69265090
 C     18  17   5     1.362729250438   110.74367796   355.95069951
 C     19  18  17     1.433423028976   114.53453946     2.49207144
 C     20  19  18     1.382947189881   111.75108993     5.12637261
 H     19  18  17     1.139743484298   117.34946128   190.79941820
 C     20  19  18     1.536279434218   123.33853106   189.92716002
 H     23  20  19     1.065814979253   102.60956317   216.06983534
 H     23  20  19     1.071326551524   113.55291454   116.89665131
 C     23  20  19     1.569618017226   120.61665225   341.08985043
 H     26  23  20     1.092476736594   109.19381322   327.10173318
 H     26  23  20     1.063122128450   110.33214095   202.81078778
 C     26  23  20     1.605264900258   110.81334183    85.59366590
 H     29  26  23     1.089441150315   112.14268194    50.27707108
 H     29  26  23     1.144218182865   109.74679040   285.06980970
 H     29  26  23     1.084959395554   114.47904192   159.75641473
 H      2   1   3     1.053337519506   119.07784644   178.08033338
 H     18  17   5     1.070462428112   121.59761463   193.12626608

---------------------------
INTERNAL COORDINATES (A.U.)
---------------------------
 S      0   0   0     0.000000000000     0.00000000     0.00000000
 C      1   0   0     3.322965195769     0.00000000     0.00000000
 C      2   1   0     2.715975152399   115.10352580     0.00000000
 C      3   2   1     2.730438865475   107.36991181   347.35851546
 C      4   3   2     2.611058472018   110.92400391     7.55289301
 H      4   3   2     2.159633436639   123.02319237   181.40767916
 C      3   2   1     2.898102266523   127.16548979   180.12804415
 H      7   3   2     2.050341325330   107.71231557   181.32491430
 H      7   3   2     2.062801235648   108.20257166    64.70600323
 C      7   3   2     2.821743657131   119.46777912   315.97982432
 H     10   7   3     2.118374938224   109.57712842    34.17023857
 H     10   7   3     2.025020834862   105.87929991   158.75216502
 C     10   7   3     2.815142863492   110.01392181   281.15423999
 H     13  10   7     2.190035405318   113.25508631   178.19832841
 H     13  10   7     2.164747636141   109.96153498   301.29041784
 H     13  10   7     2.111879841044   107.52699690    53.94986339
 S      5   4   3     5.247131201688   112.03167157   139.25496897
 C     17   5   4     3.290183910481   118.37831515   107.69265090
 C     18  17   5     2.575185078012   110.74367796   355.95069951
 C     19  18  17     2.708776958821   114.53453946     2.49207144
 C     20  19  18     2.613391446551   111.75108993     5.12637261
 H     19  18  17     2.153803048245   117.34946128   190.79941820
 C     20  19  18     2.903147395847   123.33853106   189.92716002
 H     23  20  19     2.014098420219   102.60956317   216.06983534
 H     23  20  19     2.024513782378   113.55291454   116.89665131
 C     23  20  19     2.966148187425   120.61665225   341.08985043
 H     26  23  20     2.064481839843   109.19381322   327.10173318
 H     26  23  20     2.009009669682   110.33214095   202.81078778
 C     26  23  20     3.033511033884   110.81334183    85.59366590
 H     29  26  23     2.058745413120   112.14268194    50.27707108
 H     29  26  23     2.162259003069   109.74679040   285.06980970
 H     29  26  23     2.050276124021   114.47904192   159.75641473
 H      2   1   3     1.990519438451   119.07784644   178.08033338
 H     18  17   5     2.022880825785   121.59761463   193.12626608

---------------------
BASIS SET INFORMATION
---------------------
There are 3 groups of distinct atoms

 Group   1 Type S   : 10s7p1d contracted to 4s3p1d pattern {5311/511/1}
 Group   2 Type C   : 7s4p1d contracted to 3s2p1d pattern {511/31/1}
 Group   3 Type H   : 4s1p contracted to 2s1p pattern {31/1}

Atom   0S    basis set group =>   1
Atom   1C    basis set group =>   2
Atom   2C    basis set group =>   2
Atom   3C    basis set group =>   2
Atom   4C    basis set group =>   2
Atom   5H    basis set group =>   3
Atom   6C    basis set group =>   2
Atom   7H    basis set group =>   3
Atom   8H    basis set group =>   3
Atom   9C    basis set group =>   2
Atom  10H    basis set group =>   3
Atom  11H    basis set group =>   3
Atom  12C    basis set group =>   2
Atom  13H    basis set group =>   3
Atom  14H    basis set group =>   3
Atom  15H    basis set group =>   3
Atom  16S    basis set group =>   1
Atom  17C    basis set group =>   2
Atom  18C    basis set group =>   2
Atom  19C    basis set group =>   2
Atom  20C    basis set group =>   2
Atom  21H    basis set group =>   3
Atom  22C    basis set group =>   2
Atom  23H    basis set group =>   3
Atom  24H    basis set group =>   3
Atom  25C    basis set group =>   2
Atom  26H    basis set group =>   3
Atom  27H    basis set group =>   3
Atom  28C    basis set group =>   2
Atom  29H    basis set group =>   3
Atom  30H    basis set group =>   3
Atom  31H    basis set group =>   3
Atom  32H    basis set group =>   3
Atom  33H    basis set group =>   3


           ************************************************************
           *        Program running with 16 parallel MPI-processes    *
           *              working on a common directory               *
           ************************************************************
------------------------------------------------------------------------------
                           ORCA GTO INTEGRAL CALCULATION
------------------------------------------------------------------------------

                         BASIS SET STATISTICS AND STARTUP INFO

 # of primitive gaussian shells          ...  294
 # of primitive gaussian functions       ...  534
 # of contracted shells                  ...  154
 # of contracted basis functions         ...  322
 Highest angular momentum                ...    2
 Maximum contraction depth               ...    5
 Integral package used                   ... LIBINT
 Integral threshhold            Thresh   ...  1.000e-10
 Primitive cut-off              TCut     ...  1.000e-11


------------------------------ INTEGRAL EVALUATION ----------------------------


 * One electron integrals 
 Pre-screening matrix                    ... done
 Shell pair data                         ... done (   0.003 sec)



           ************************************************************
           *        Program running with 16 parallel MPI-processes    *
           *              working on a common directory               *
           ************************************************************
-------------------------------------------------------------------------------
                                 ORCA SCF
-------------------------------------------------------------------------------

------------
SCF SETTINGS
------------
Hamiltonian:
 Density Functional     Method          .... DFT(GTOs)
 Exchange Functional    Exchange        .... WB97X-D3
 Correlation Functional Correlation     .... WB97X-D3
 Gradients option       PostSCFGGA      .... off
 Hybrid DFT is turned on
   Fraction HF Exchange ScalHFX         ....  0.195728
   Scaling of DF-GGA-X  ScalDFX         ....  0.000000
   Scaling of DF-GGA-C  ScalDFC         ....  1.000000
   Scaling of DF-LDA-C  ScalLDAC        ....  1.000000
   Perturbative correction              ....  0.000000
   Density functional embedding theory  .... OFF
 Long-range corrected/Screened/Range-Separated Hybrid DFT is turned on
   Amount of maximum screened exact exchange              ....  0.804272
   Range separation parameter mu (erf(mu*r12)/r12)        ....  0.250000


General Settings:
 Integral files         IntName         .... config_7592
 Hartree-Fock type      HFTyp           .... RHF
 Total Charge           Charge          ....    0
 Multiplicity           Mult            ....    1
 Number of Electrons    NEL             ....  134
 Basis Dimension        Dim             ....  322
 Nuclear Repulsion      ENuc            ....   1271.4218051523 Eh

Convergence Acceleration:
 DIIS                   CNVDIIS         .... on
   Start iteration      DIISMaxIt       ....    12
   Startup error        DIISStart       ....  0.200000
   # of expansion vecs  DIISMaxEq       ....     5
   Bias factor          DIISBfac        ....   1.050
   Max. coefficient     DIISMaxC        ....  10.000
 Newton-Raphson         CNVNR           .... off
 SOSCF                  CNVSOSCF        .... on
   Start iteration      SOSCFMaxIt      ....   150
   Startup grad/error   SOSCFStart      ....  0.003300
 Level Shifting         CNVShift        .... on
   Level shift para.    LevelShift      ....    0.2500
   Turn off err/grad.   ShiftErr        ....    0.0010
 Zerner damping         CNVZerner       .... off
 Static damping         CNVDamp         .... on
   Fraction old density DampFac         ....    0.7000
   Max. Damping (<1)    DampMax         ....    0.9800
   Min. Damping (>=0)   DampMin         ....    0.0000
   Turn off err/grad.   DampErr         ....    0.1000
 Fernandez-Rico         CNVRico         .... off

SCF Procedure:
 Maximum # iterations   MaxIter         ....   125
 SCF integral mode      SCFMode         .... Direct
   Integral package                     .... LIBINT
 Reset frequency        DirectResetFreq ....    20
 Integral Threshold     Thresh          ....  1.000e-10 Eh
 Primitive CutOff       TCut            ....  1.000e-11 Eh

Convergence Tolerance:
 Convergence Check Mode ConvCheckMode   .... Total+1el-Energy
 Convergence forced     ConvForced      .... 0
 Energy Change          TolE            ....  1.000e-06 Eh
 1-El. energy change                    ....  1.000e-03 Eh
 Orbital Gradient       TolG            ....  5.000e-05
 Orbital Rotation angle TolX            ....  5.000e-05
 DIIS Error             TolErr          ....  1.000e-06


Diagonalization of the overlap matrix:
Smallest eigenvalue                        ... 7.374e-04
Time for diagonalization                   ...    0.017 sec
Threshold for overlap eigenvalues          ... 1.000e-08
Number of eigenvalues below threshold      ... 0
Time for construction of square roots      ...    0.025 sec
Total time needed                          ...    0.043 sec

-------------------
DFT GRID GENERATION
-------------------

General Integration Accuracy     IntAcc      ...  4.340
Radial Grid Type                 RadialGrid  ... Gauss-Chebyshev
Angular Grid (max. acc.)         AngularGrid ... Lebedev-110
Angular grid pruning method      GridPruning ... 3 (G Style)
Weight generation scheme         WeightScheme... Becke
Basis function cutoff            BFCut       ...    1.0000e-10
Integration weight cutoff        WCut        ...    1.0000e-14
Grids for H and He will be reduced by one unit

# of grid points (after initial pruning)     ...  41088 (   0.0 sec)
# of grid points (after weights+screening)   ...  37052 (   0.0 sec)
nearest neighbour list constructed           ...    0.0 sec
Grid point re-assignment to atoms done       ...    0.0 sec
Grid point division into batches done        ...    0.0 sec
Reduced shell lists constructed in    0.1 sec

Total number of grid points                  ...    37052
Total number of batches                      ...      598
Average number of points per batch           ...       61
Average number of grid points per atom       ...     1090
Average number of shells per batch           ...    76.44 (49.63%)
Average number of basis functions per batch  ...   151.56 (47.07%)
Average number of large shells per batch     ...    48.87 (63.94%)
Average number of large basis fcns per batch ...   100.10 (66.05%)
Maximum spatial batch extension              ...  15.80, 15.10, 17.33 au
Average spatial batch extension              ...   0.22,  0.21,  0.21 au

Time for grid setup =    0.202 sec

------------------------------
INITIAL GUESS: MODEL POTENTIAL
------------------------------
Loading Hartree-Fock densities                     ... done
Calculating cut-offs                               ... done
Setting up the integral package                    ... done
Initializing the effective Hamiltonian             ... done
Starting the Coulomb interaction                   ... done (   0.0 sec)
Reading the grid                                   ... done
Mapping shells                                     ... done
Starting the XC term evaluation                    ... done (   0.0 sec)
  promolecular density results
     # of electrons  =    133.995138255
     EX              =   -126.686093450
     EC              =     -4.615315006
     EX+EC           =   -131.301408456
Transforming the Hamiltonian                       ... done (   0.0 sec)
Diagonalizing the Hamiltonian                      ... done (   0.0 sec)
Back transforming the eigenvectors                 ... done (   0.0 sec)
Now organizing SCF variables                       ... done
                      ------------------
                      INITIAL GUESS DONE (   0.4 sec)
                      ------------------
--------------
SCF ITERATIONS
--------------
ITER       Energy         Delta-E        Max-DP      RMS-DP      [F,P]     Damp
               ***  Starting incremental Fock matrix formation  ***
  0  -1339.4081700954   0.000000000000 0.06300303  0.00153817  0.1464057 0.7000
  1  -1339.5908504592  -0.182680363783 0.04200671  0.00112624  0.0884188 0.7000
                               ***Turning on DIIS***
  2  -1339.6799429907  -0.089092531481 0.07478110  0.00213997  0.0457719 0.0000
  3  -1339.8143756583  -0.134432667591 0.04513417  0.00092332  0.0372598 0.0000
  4  -1339.8429522037  -0.028576545441 0.00705141  0.00019506  0.0073553 0.0000
                      *** Initiating the SOSCF procedure ***
                           *** Shutting down DIIS ***
                      *** Re-Reading the Fockian *** 
                      *** Removing any level shift *** 
ITER      Energy       Delta-E        Grad      Rot      Max-DP    RMS-DP
  5  -1339.84386274  -0.0009105382  0.001442  0.001442  0.004023  0.000101
               *** Restarting incremental Fock matrix formation ***
  6  -1339.84404345  -0.0001807127  0.001205  0.003160  0.002554  0.000063
  7  -1339.84410624  -0.0000627837  0.000577  0.003679  0.002729  0.000068
  8  -1339.84412456  -0.0000183201  0.000265  0.000438  0.000703  0.000021
  9  -1339.84412874  -0.0000041824  0.000145  0.000348  0.000258  0.000008
                 **** Energy Check signals convergence ****
              ***Rediagonalizing the Fockian in SOSCF/NRSCF***

               *****************************************************
               *                     SUCCESS                       *
               *           SCF CONVERGED AFTER  10 CYCLES          *
               *****************************************************

Setting up the final grid:

General Integration Accuracy     IntAcc      ...  4.670
Radial Grid Type                 RadialGrid  ... Gauss-Chebyshev
Angular Grid (max. acc.)         AngularGrid ... Lebedev-302
Angular grid pruning method      GridPruning ... 3 (G Style)
Weight generation scheme         WeightScheme... Becke
Basis function cutoff            BFCut       ...    1.0000e-10
Integration weight cutoff        WCut        ...    1.0000e-14
Grids for H and He will be reduced by one unit

# of grid points (after initial pruning)     ... 161752 (   0.0 sec)
# of grid points (after weights+screening)   ... 143087 (   0.1 sec)
nearest neighbour list constructed           ...    0.0 sec
Grid point re-assignment to atoms done       ...    0.0 sec
Grid point division into batches done        ...    0.5 sec
Reduced shell lists constructed in    0.6 sec

Total number of grid points                  ...   143087
Total number of batches                      ...     2253
Average number of points per batch           ...       63
Average number of grid points per atom       ...     4208
Average number of shells per batch           ...    69.85 (45.36%)
Average number of basis functions per batch  ...   137.46 (42.69%)
Average number of large shells per batch     ...    43.65 (62.50%)
Average number of large basis fcns per batch ...    88.81 (64.61%)
Maximum spatial batch extension              ...  14.54, 13.18, 14.25 au
Average spatial batch extension              ...   0.14,  0.14,  0.15 au

Final grid set up in    1.0 sec
Final integration                            ... done (   0.3 sec)
Change in XC energy                          ...     0.006310422
Integrated number of electrons               ...   133.999926068
Previous integrated no of electrons          ...   134.003233785

----------------
TOTAL SCF ENERGY
----------------

Total Energy       :        -1339.83781872 Eh          -36458.84058 eV

Components:
Nuclear Repulsion  :         1271.42180515 Eh           34597.14620 eV
Electronic Energy  :        -2611.25962387 Eh          -71055.98678 eV
One Electron Energy:        -4359.56856830 Eh         -118629.89177 eV
Two Electron Energy:         1748.30894443 Eh           47573.90499 eV

Virial components:
Potential Energy   :        -2671.11590674 Eh          -72684.75904 eV
Kinetic Energy     :         1331.27808802 Eh           36225.91847 eV
Virial Ratio       :            2.00642971


DFT components:
N(Alpha)           :       66.999963034064 electrons
N(Beta)            :       66.999963034064 electrons
N(Total)           :      133.999926068127 electrons
E(XC)              :      -94.199641561584 Eh       
DFET-embed. en.    :        0.000000000000 Eh       

---------------
SCF CONVERGENCE
---------------

  Last Energy change         ...   -4.0012e-07  Tolerance :   1.0000e-06
  Last MAX-Density change    ...    1.5027e-04  Tolerance :   1.0000e-05
  Last RMS-Density change    ...    3.5772e-06  Tolerance :   1.0000e-06
  Last Orbital Gradient      ...    6.6234e-05  Tolerance :   5.0000e-05
  Last Orbital Rotation      ...    1.7010e-04  Tolerance :   5.0000e-05

             **** THE GBW FILE WAS UPDATED (config_7592.gbw) ****
             **** DENSITY FILE WAS UPDATED (config_7592.scfp) ****
             **** ENERGY FILE WAS UPDATED (config_7592.en.tmp) ****
             **** THE GBW FILE WAS UPDATED (config_7592.gbw) ****
             **** DENSITY FILE WAS UPDATED (config_7592.scfp) ****
----------------
ORBITAL ENERGIES
----------------

  NO   OCC          E(Eh)            E(eV) 
   0   2.0000     -88.974201     -2421.1111 
   1   2.0000     -88.959426     -2420.7090 
   2   2.0000     -10.321037      -280.8497 
   3   2.0000     -10.316952      -280.7385 
   4   2.0000     -10.315358      -280.6952 
   5   2.0000     -10.312181      -280.6087 
   6   2.0000     -10.310512      -280.5633 
   7   2.0000     -10.303737      -280.3790 
   8   2.0000     -10.302065      -280.3334 
   9   2.0000     -10.294182      -280.1189 
  10   2.0000     -10.293762      -280.1075 
  11   2.0000     -10.293095      -280.0894 
  12   2.0000     -10.287402      -279.9344 
  13   2.0000     -10.284880      -279.8658 
  14   2.0000     -10.284566      -279.8573 
  15   2.0000     -10.284381      -279.8522 
  16   2.0000      -8.089503      -220.1266 
  17   2.0000      -8.074317      -219.7133 
  18   2.0000      -6.047586      -164.5632 
  19   2.0000      -6.044182      -164.4705 
  20   2.0000      -6.040432      -164.3685 
  21   2.0000      -6.032837      -164.1618 
  22   2.0000      -6.028876      -164.0541 
  23   2.0000      -6.024993      -163.9484 
  24   2.0000      -1.008626       -27.4461 
  25   2.0000      -0.982436       -26.7334 
  26   2.0000      -0.924719       -25.1629 
  27   2.0000      -0.897701       -24.4277 
  28   2.0000      -0.866801       -23.5869 
  29   2.0000      -0.855288       -23.2736 
  30   2.0000      -0.838765       -22.8239 
  31   2.0000      -0.806190       -21.9376 
  32   2.0000      -0.783762       -21.3273 
  33   2.0000      -0.771041       -20.9811 
  34   2.0000      -0.705123       -19.1874 
  35   2.0000      -0.701606       -19.0917 
  36   2.0000      -0.691717       -18.8226 
  37   2.0000      -0.646291       -17.5865 
  38   2.0000      -0.642865       -17.4933 
  39   2.0000      -0.611839       -16.6490 
  40   2.0000      -0.602525       -16.3955 
  41   2.0000      -0.577238       -15.7074 
  42   2.0000      -0.553569       -15.0634 
  43   2.0000      -0.543265       -14.7830 
  44   2.0000      -0.538351       -14.6493 
  45   2.0000      -0.535984       -14.5849 
  46   2.0000      -0.517685       -14.0869 
  47   2.0000      -0.510555       -13.8929 
  48   2.0000      -0.501392       -13.6436 
  49   2.0000      -0.487134       -13.2556 
  50   2.0000      -0.481570       -13.1042 
  51   2.0000      -0.474315       -12.9068 
  52   2.0000      -0.468577       -12.7506 
  53   2.0000      -0.465262       -12.6604 
  54   2.0000      -0.459910       -12.5148 
  55   2.0000      -0.449467       -12.2306 
  56   2.0000      -0.445348       -12.1185 
  57   2.0000      -0.432828       -11.7778 
  58   2.0000      -0.428144       -11.6504 
  59   2.0000      -0.425959       -11.5909 
  60   2.0000      -0.421707       -11.4752 
  61   2.0000      -0.419857       -11.4249 
  62   2.0000      -0.417340       -11.3564 
  63   2.0000      -0.337946        -9.1960 
  64   2.0000      -0.326592        -8.8870 
  65   2.0000      -0.313379        -8.5275 
  66   2.0000      -0.305555        -8.3146 
  67   0.0000       0.043350         1.1796 
  68   0.0000       0.052553         1.4300 
  69   0.0000       0.105002         2.8573 
  70   0.0000       0.115887         3.1534 
  71   0.0000       0.122487         3.3330 
  72   0.0000       0.145271         3.9530 
  73   0.0000       0.148291         4.0352 
  74   0.0000       0.152818         4.1584 
  75   0.0000       0.158910         4.3241 
  76   0.0000       0.167716         4.5638 
  77   0.0000       0.180020         4.8986 
  78   0.0000       0.186544         5.0761 
  79   0.0000       0.195523         5.3204 
  80   0.0000       0.198944         5.4136 
  81   0.0000       0.205221         5.5843 
  82   0.0000       0.211687         5.7603 
  83   0.0000       0.218487         5.9453 
  84   0.0000       0.225431         6.1343 
  85   0.0000       0.234132         6.3710 
  86   0.0000       0.237053         6.4505 
  87   0.0000       0.243273         6.6198 
  88   0.0000       0.248835         6.7711 
  89   0.0000       0.251371         6.8402 
  90   0.0000       0.262818         7.1517 
  91   0.0000       0.268975         7.3192 
  92   0.0000       0.277994         7.5646 
  93   0.0000       0.284050         7.7294 
  94   0.0000       0.290821         7.9136 
  95   0.0000       0.302050         8.2192 
  96   0.0000       0.322754         8.7826 
  97   0.0000       0.329542         8.9673 
  98   0.0000       0.339145         9.2286 
  99   0.0000       0.371911        10.1202 
 100   0.0000       0.382077        10.3969 
 101   0.0000       0.393194        10.6994 
 102   0.0000       0.415905        11.3174 
 103   0.0000       0.421660        11.4739 
 104   0.0000       0.441857        12.0235 
 105   0.0000       0.446109        12.1393 
 106   0.0000       0.457568        12.4510 
 107   0.0000       0.478507        13.0208 
 108   0.0000       0.486932        13.2501 
 109   0.0000       0.499728        13.5983 
 110   0.0000       0.504375        13.7248 
 111   0.0000       0.511035        13.9060 
 112   0.0000       0.512430        13.9439 
 113   0.0000       0.521913        14.2020 
 114   0.0000       0.527081        14.3426 
 115   0.0000       0.534380        14.5412 
 116   0.0000       0.536566        14.6007 
 117   0.0000       0.541756        14.7419 
 118   0.0000       0.547821        14.9070 
 119   0.0000       0.562058        15.2944 
 120   0.0000       0.583021        15.8648 
 121   0.0000       0.593376        16.1466 
 122   0.0000       0.599770        16.3206 
 123   0.0000       0.610285        16.6067 
 124   0.0000       0.619927        16.8691 
 125   0.0000       0.631980        17.1970 
 126   0.0000       0.636165        17.3109 
 127   0.0000       0.651050        17.7160 
 128   0.0000       0.656604        17.8671 
 129   0.0000       0.658344        17.9145 
 130   0.0000       0.677655        18.4399 
 131   0.0000       0.686014        18.6674 
 132   0.0000       0.693113        18.8606 
 133   0.0000       0.702038        19.1034 
 134   0.0000       0.713803        19.4236 
 135   0.0000       0.717924        19.5357 
 136   0.0000       0.719612        19.5816 
 137   0.0000       0.725893        19.7525 
 138   0.0000       0.732420        19.9302 
 139   0.0000       0.734922        19.9983 
 140   0.0000       0.740676        20.1548 
 141   0.0000       0.744295        20.2533 
 142   0.0000       0.754778        20.5386 
 143   0.0000       0.759084        20.6557 
 144   0.0000       0.761759        20.7285 
 145   0.0000       0.765975        20.8432 
 146   0.0000       0.771618        20.9968 
 147   0.0000       0.772798        21.0289 
 148   0.0000       0.779837        21.2204 
 149   0.0000       0.786755        21.4087 
 150   0.0000       0.787843        21.4383 
 151   0.0000       0.789706        21.4890 
 152   0.0000       0.790969        21.5234 
 153   0.0000       0.795467        21.6458 
 154   0.0000       0.798090        21.7171 
 155   0.0000       0.802651        21.8413 
 156   0.0000       0.808942        22.0124 
 157   0.0000       0.813602        22.1392 
 158   0.0000       0.816856        22.2278 
 159   0.0000       0.819616        22.3029 
 160   0.0000       0.830865        22.6090 
 161   0.0000       0.833565        22.6824 
 162   0.0000       0.839593        22.8465 
 163   0.0000       0.841439        22.8967 
 164   0.0000       0.846521        23.0350 
 165   0.0000       0.858745        23.3676 
 166   0.0000       0.865601        23.5542 
 167   0.0000       0.870359        23.6837 
 168   0.0000       0.878000        23.8916 
 169   0.0000       0.895781        24.3754 
 170   0.0000       0.903972        24.5983 
 171   0.0000       0.915398        24.9092 
 172   0.0000       0.918455        24.9924 
 173   0.0000       0.923085        25.1184 
 174   0.0000       0.953799        25.9542 
 175   0.0000       0.964130        26.2353 
 176   0.0000       0.980711        26.6865 
 177   0.0000       0.993015        27.0213 
 178   0.0000       1.026460        27.9314 
 179   0.0000       1.039179        28.2775 
 180   0.0000       1.050691        28.5908 
 181   0.0000       1.063808        28.9477 
 182   0.0000       1.076693        29.2983 
 183   0.0000       1.094303        29.7775 
 184   0.0000       1.104771        30.0623 
 185   0.0000       1.140122        31.0243 
 186   0.0000       1.160343        31.5745 
 187   0.0000       1.162561        31.6349 
 188   0.0000       1.184241        32.2248 
 189   0.0000       1.211782        32.9743 
 190   0.0000       1.221250        33.2319 
 191   0.0000       1.238707        33.7069 
 192   0.0000       1.262215        34.3466 
 193   0.0000       1.264409        34.4063 
 194   0.0000       1.280346        34.8400 
 195   0.0000       1.297389        35.3038 
 196   0.0000       1.325619        36.0719 
 197   0.0000       1.341441        36.5025 
 198   0.0000       1.353028        36.8178 
 199   0.0000       1.362176        37.0667 
 200   0.0000       1.393183        37.9104 
 201   0.0000       1.402096        38.1530 
 202   0.0000       1.416553        38.5464 
 203   0.0000       1.434145        39.0251 
 204   0.0000       1.446548        39.3626 
 205   0.0000       1.462533        39.7975 
 206   0.0000       1.489632        40.5349 
 207   0.0000       1.497967        40.7618 
 208   0.0000       1.535347        41.7789 
 209   0.0000       1.561764        42.4978 
 210   0.0000       1.591078        43.2954 
 211   0.0000       1.618352        44.0376 
 212   0.0000       1.627327        44.2818 
 213   0.0000       1.639340        44.6087 
 214   0.0000       1.647117        44.8203 
 215   0.0000       1.671912        45.4950 
 216   0.0000       1.673182        45.5296 
 217   0.0000       1.694127        46.0995 
 218   0.0000       1.700164        46.2638 
 219   0.0000       1.738382        47.3038 
 220   0.0000       1.756991        47.8102 
 221   0.0000       1.771353        48.2010 
 222   0.0000       1.780996        48.4634 
 223   0.0000       1.818237        49.4767 
 224   0.0000       1.820490        49.5381 
 225   0.0000       1.825133        49.6644 
 226   0.0000       1.833900        49.9030 
 227   0.0000       1.846322        50.2410 
 228   0.0000       1.852990        50.4224 
 229   0.0000       1.863442        50.7068 
 230   0.0000       1.866426        50.7880 
 231   0.0000       1.867608        50.8202 
 232   0.0000       1.875392        51.0320 
 233   0.0000       1.880381        51.1678 
 234   0.0000       1.889340        51.4115 
 235   0.0000       1.891979        51.4834 
 236   0.0000       1.904317        51.8191 
 237   0.0000       1.913372        52.0655 
 238   0.0000       1.925769        52.4029 
 239   0.0000       1.940421        52.8015 
 240   0.0000       1.952213        53.1224 
 241   0.0000       1.953064        53.1456 
 242   0.0000       1.970447        53.6186 
 243   0.0000       1.975111        53.7455 
 244   0.0000       1.981739        53.9259 
 245   0.0000       1.984338        53.9966 
 246   0.0000       1.987538        54.0837 
 247   0.0000       2.000768        54.4437 
 248   0.0000       2.017385        54.8959 
 249   0.0000       2.026023        55.1309 
 250   0.0000       2.038554        55.4719 
 251   0.0000       2.052350        55.8473 
 252   0.0000       2.071929        56.3800 
 253   0.0000       2.084985        56.7353 
 254   0.0000       2.106436        57.3190 
 255   0.0000       2.108032        57.3625 
 256   0.0000       2.116328        57.5882 
 257   0.0000       2.124375        57.8072 
 258   0.0000       2.126355        57.8611 
 259   0.0000       2.151280        58.5393 
 260   0.0000       2.153549        58.6011 
 261   0.0000       2.165614        58.9294 
 262   0.0000       2.191240        59.6267 
 263   0.0000       2.209895        60.1343 
 264   0.0000       2.215238        60.2797 
 265   0.0000       2.229677        60.6726 
 266   0.0000       2.262133        61.5558 
 267   0.0000       2.266601        61.6773 
 268   0.0000       2.292569        62.3840 
 269   0.0000       2.313669        62.9581 
 270   0.0000       2.327181        63.3258 
 271   0.0000       2.345859        63.8341 
 272   0.0000       2.359435        64.2035 
 273   0.0000       2.383720        64.8643 
 274   0.0000       2.399242        65.2867 
 275   0.0000       2.403440        65.4009 
 276   0.0000       2.424616        65.9772 
 277   0.0000       2.433955        66.2313 
 278   0.0000       2.453496        66.7630 
 279   0.0000       2.460978        66.9666 
 280   0.0000       2.477390        67.4132 
 281   0.0000       2.484067        67.5949 
 282   0.0000       2.494097        67.8678 
 283   0.0000       2.515569        68.4521 
 284   0.0000       2.529496        68.8311 
 285   0.0000       2.554932        69.5232 
 286   0.0000       2.575643        70.0868 
 287   0.0000       2.584136        70.3179 
 288   0.0000       2.593104        70.5619 
 289   0.0000       2.599949        70.7482 
 290   0.0000       2.617433        71.2240 
 291   0.0000       2.636311        71.7377 
 292   0.0000       2.652234        72.1710 
 293   0.0000       2.679470        72.9121 
 294   0.0000       2.715821        73.9012 
 295   0.0000       2.720445        74.0271 
 296   0.0000       2.735352        74.4327 
 297   0.0000       2.742101        74.6164 
 298   0.0000       2.760748        75.1238 
 299   0.0000       2.773057        75.4587 
 300   0.0000       2.832735        77.0826 
 301   0.0000       2.863849        77.9293 
 302   0.0000       2.882016        78.4236 
 303   0.0000       2.890512        78.6548 
 304   0.0000       2.963401        80.6382 
 305   0.0000       2.968911        80.7882 
 306   0.0000       2.980089        81.0923 
 307   0.0000       2.995384        81.5085 
 308   0.0000       3.024320        82.2959 
 309   0.0000       3.031678        82.4962 
 310   0.0000       3.037567        82.6564 
 311   0.0000       3.076376        83.7124 
 312   0.0000       3.102118        84.4129 
 313   0.0000       3.110641        84.6448 
 314   0.0000       3.114080        84.7384 
 315   0.0000       3.125206        85.0412 
 316   0.0000       3.164122        86.1001 
 317   0.0000       3.184395        86.6518 
 318   0.0000       3.215244        87.4912 
 319   0.0000       3.238948        88.1363 
 320   0.0000       3.355011        91.2945 
 321   0.0000       3.411547        92.8329 

                    ********************************
                    * MULLIKEN POPULATION ANALYSIS *
                    ********************************

-----------------------
MULLIKEN ATOMIC CHARGES
-----------------------
   0 S :    0.151645
   1 C :   -0.131982
   2 C :   -0.084029
   3 C :    0.008446
   4 C :   -0.196485
   5 H :    0.049899
   6 C :    0.056484
   7 H :    0.020464
   8 H :    0.041794
   9 C :   -0.049669
  10 H :    0.037975
  11 H :    0.028735
  12 C :   -0.102808
  13 H :    0.052154
  14 H :    0.026936
  15 H :    0.044171
  16 S :    0.100120
  17 C :   -0.085611
  18 C :   -0.073031
  19 C :   -0.014817
  20 C :   -0.177665
  21 H :    0.039669
  22 C :    0.103900
  23 H :    0.009989
  24 H :    0.011301
  25 C :   -0.035937
  26 H :    0.039440
  27 H :    0.028985
  28 C :   -0.083882
  29 H :    0.023027
  30 H :    0.045382
  31 H :    0.028625
  32 H :    0.033460
  33 H :    0.053314
Sum of atomic charges:   -0.0000000

--------------------------------
MULLIKEN REDUCED ORBITAL CHARGES
--------------------------------
  0 S s       :     5.844842  s :     5.844842
      pz      :     3.268631  p :     9.890876
      px      :     3.326494
      py      :     3.295750
      dz2     :     0.021079  d :     0.112637
      dxz     :     0.021228
      dyz     :     0.023057
      dx2y2   :     0.028708
      dxy     :     0.018566
  1 C s       :     3.185990  s :     3.185990
      pz      :     0.978898  p :     2.913374
      px      :     1.056871
      py      :     0.877605
      dz2     :     0.004978  d :     0.032618
      dxz     :     0.005842
      dyz     :     0.008237
      dx2y2   :     0.008165
      dxy     :     0.005396
  2 C s       :     3.112424  s :     3.112424
      pz      :     0.996063  p :     2.930601
      px      :     0.982231
      py      :     0.952307
      dz2     :     0.007027  d :     0.041004
      dxz     :     0.005086
      dyz     :     0.010502
      dx2y2   :     0.008545
      dxy     :     0.009844
  3 C s       :     3.206675  s :     3.206675
      pz      :     0.945746  p :     2.751259
      px      :     0.916530
      py      :     0.888982
      dz2     :     0.005608  d :     0.033620
      dxz     :     0.005150
      dyz     :     0.007427
      dx2y2   :     0.006797
      dxy     :     0.008638
  4 C s       :     3.064505  s :     3.064505
      pz      :     1.047981  p :     3.083794
      px      :     0.975420
      py      :     1.060393
      dz2     :     0.006904  d :     0.048185
      dxz     :     0.008181
      dyz     :     0.011546
      dx2y2   :     0.012997
      dxy     :     0.008558
  5 H s       :     0.928897  s :     0.928897
      pz      :     0.007582  p :     0.021203
      px      :     0.009162
      py      :     0.004459
  6 C s       :     2.969198  s :     2.969198
      pz      :     0.978234  p :     2.937558
      px      :     1.022457
      py      :     0.936868
      dz2     :     0.005395  d :     0.036760
      dxz     :     0.010061
      dyz     :     0.006162
      dx2y2   :     0.007623
      dxy     :     0.007519
  7 H s       :     0.956713  s :     0.956713
      pz      :     0.009470  p :     0.022822
      px      :     0.008185
      py      :     0.005168
  8 H s       :     0.933543  s :     0.933543
      pz      :     0.011964  p :     0.024663
      px      :     0.007890
      py      :     0.004809
  9 C s       :     3.034298  s :     3.034298
      pz      :     1.032808  p :     2.975474
      px      :     0.954030
      py      :     0.988636
      dz2     :     0.004915  d :     0.039897
      dxz     :     0.010499
      dyz     :     0.009548
      dx2y2   :     0.004190
      dxy     :     0.010744
 10 H s       :     0.940125  s :     0.940125
      pz      :     0.006261  p :     0.021900
      px      :     0.009035
      py      :     0.006604
 11 H s       :     0.947953  s :     0.947953
      pz      :     0.007340  p :     0.023311
      px      :     0.006408
      py      :     0.009563
 12 C s       :     3.077211  s :     3.077211
      pz      :     0.985811  p :     2.996851
      px      :     1.002243
      py      :     1.008797
      dz2     :     0.004174  d :     0.028745
      dxz     :     0.007131
      dyz     :     0.008086
      dx2y2   :     0.002365
      dxy     :     0.006988
 13 H s       :     0.928135  s :     0.928135
      pz      :     0.003763  p :     0.019711
      px      :     0.008947
      py      :     0.007001
 14 H s       :     0.951825  s :     0.951825
      pz      :     0.007257  p :     0.021239
      px      :     0.007354
      py      :     0.006628
 15 H s       :     0.933355  s :     0.933355
      pz      :     0.007193  p :     0.022474
      px      :     0.005175
      py      :     0.010106
 16 S s       :     5.846323  s :     5.846323
      pz      :     3.039123  p :     9.947548
      px      :     3.493271
      py      :     3.415154
      dz2     :     0.029282  d :     0.106009
      dxz     :     0.025235
      dyz     :     0.017780
      dx2y2   :     0.013594
      dxy     :     0.020118
 17 C s       :     3.141297  s :     3.141297
      pz      :     0.946317  p :     2.908203
      px      :     0.986264
      py      :     0.975622
      dz2     :     0.010087  d :     0.036111
      dxz     :     0.007017
      dyz     :     0.005170
      dx2y2   :     0.006921
      dxy     :     0.006916
 18 C s       :     3.181692  s :     3.181692
      pz      :     0.949963  p :     2.856143
      px      :     0.921254
      py      :     0.984926
      dz2     :     0.008621  d :     0.035195
      dxz     :     0.009370
      dyz     :     0.008285
      dx2y2   :     0.004118
      dxy     :     0.004802
 19 C s       :     3.053836  s :     3.053836
      pz      :     0.996189  p :     2.917969
      px      :     0.954047
      py      :     0.967732
      dz2     :     0.011179  d :     0.043012
      dxz     :     0.009308
      dyz     :     0.007263
      dx2y2   :     0.008460
      dxy     :     0.006802
 20 C s       :     3.085087  s :     3.085087
      pz      :     0.893037  p :     3.048415
      px      :     1.064694
      py      :     1.090683
      dz2     :     0.012385  d :     0.044163
      dxz     :     0.009277
      dyz     :     0.007845
      dx2y2   :     0.007590
      dxy     :     0.007066
 21 H s       :     0.938758  s :     0.938758
      pz      :     0.003607  p :     0.021573
      px      :     0.010833
      py      :     0.007133
 22 C s       :     2.904416  s :     2.904416
      pz      :     1.004001  p :     2.957264
      px      :     0.946757
      py      :     1.006507
      dz2     :     0.005737  d :     0.034419
      dxz     :     0.011454
      dyz     :     0.003330
      dx2y2   :     0.007302
      dxy     :     0.006596
 23 H s       :     0.964198  s :     0.964198
      pz      :     0.011066  p :     0.025813
      px      :     0.008846
      py      :     0.005901
 24 H s       :     0.963617  s :     0.963617
      pz      :     0.005731  p :     0.025083
      px      :     0.006390
      py      :     0.012961
 25 C s       :     3.060012  s :     3.060012
      pz      :     1.002092  p :     2.943182
      px      :     0.944503
      py      :     0.996587
      dz2     :     0.008076  d :     0.032744
      dxz     :     0.006370
      dyz     :     0.003392
      dx2y2   :     0.006740
      dxy     :     0.008166
 26 H s       :     0.937941  s :     0.937941
      pz      :     0.006018  p :     0.022619
      px      :     0.005087
      py      :     0.011514
 27 H s       :     0.947363  s :     0.947363
      pz      :     0.013621  p :     0.023652
      px      :     0.005334
      py      :     0.004697
 28 C s       :     3.051961  s :     3.051961
      pz      :     1.005917  p :     3.006033
      px      :     0.963856
      py      :     1.036260
      dz2     :     0.007991  d :     0.025889
      dxz     :     0.004098
      dyz     :     0.001795
      dx2y2   :     0.005677
      dxy     :     0.006328
 29 H s       :     0.952959  s :     0.952959
      pz      :     0.004800  p :     0.024014
      px      :     0.005451
      py      :     0.013763
 30 H s       :     0.933567  s :     0.933567
      pz      :     0.012784  p :     0.021051
      px      :     0.004015
      py      :     0.004252
 31 H s       :     0.947320  s :     0.947320
      pz      :     0.005048  p :     0.024055
      px      :     0.010899
      py      :     0.008108
 32 H s       :     0.941784  s :     0.941784
      pz      :     0.012490  p :     0.024756
      px      :     0.008548
      py      :     0.003719
 33 H s       :     0.922406  s :     0.922406
      pz      :     0.015140  p :     0.024280
      px      :     0.004205
      py      :     0.004935


                     *******************************
                     * LOEWDIN POPULATION ANALYSIS *
                     *******************************

----------------------
LOEWDIN ATOMIC CHARGES
----------------------
   0 S :    0.446286
   1 C :   -0.197178
   2 C :   -0.052483
   3 C :   -0.065316
   4 C :   -0.223974
   5 H :    0.048217
   6 C :   -0.035739
   7 H :    0.028475
   8 H :    0.042809
   9 C :   -0.046790
  10 H :    0.034054
  11 H :    0.023079
  12 C :   -0.080395
  13 H :    0.031955
  14 H :    0.024639
  15 H :    0.030919
  16 S :    0.396431
  17 C :   -0.186250
  18 C :   -0.086921
  19 C :   -0.046855
  20 C :   -0.209310
  21 H :    0.041184
  22 C :   -0.036446
  23 H :    0.032448
  24 H :    0.030947
  25 C :   -0.027423
  26 H :    0.026118
  27 H :    0.024045
  28 C :   -0.076274
  29 H :    0.022089
  30 H :    0.029720
  31 H :    0.022614
  32 H :    0.008798
  33 H :    0.026526

-------------------------------
LOEWDIN REDUCED ORBITAL CHARGES
-------------------------------
  0 S s       :     5.496594  s :     5.496594
      pz      :     3.261857  p :     9.916452
      px      :     3.340591
      py      :     3.314005
      dz2     :     0.025609  d :     0.140667
      dxz     :     0.028744
      dyz     :     0.029246
      dx2y2   :     0.035651
      dxy     :     0.021417
  1 C s       :     2.935293  s :     2.935293
      pz      :     1.074517  p :     3.185201
      px      :     1.106478
      py      :     1.004206
      dz2     :     0.011585  d :     0.076684
      dxz     :     0.013501
      dyz     :     0.019678
      dx2y2   :     0.018193
      dxy     :     0.013726
  2 C s       :     2.883465  s :     2.883465
      pz      :     1.016946  p :     3.070044
      px      :     1.021249
      py      :     1.031848
      dz2     :     0.015356  d :     0.098974
      dxz     :     0.013044
      dyz     :     0.025627
      dx2y2   :     0.019885
      dxy     :     0.025061
  3 C s       :     2.884825  s :     2.884825
      pz      :     1.027023  p :     3.093059
      px      :     1.030572
      py      :     1.035464
      dz2     :     0.013134  d :     0.087433
      dxz     :     0.012327
      dyz     :     0.020326
      dx2y2   :     0.017813
      dxy     :     0.023833
  4 C s       :     2.894505  s :     2.894505
      pz      :     1.071344  p :     3.212610
      px      :     1.042712
      py      :     1.098554
      dz2     :     0.016572  d :     0.116859
      dxz     :     0.018886
      dyz     :     0.028095
      dx2y2   :     0.031124
      dxy     :     0.022183
  5 H s       :     0.891255  s :     0.891255
      pz      :     0.021571  p :     0.060528
      px      :     0.025897
      py      :     0.013059
  6 C s       :     2.821332  s :     2.821332
      pz      :     1.052837  p :     3.122275
      px      :     1.058881
      py      :     1.010556
      dz2     :     0.014000  d :     0.092131
      dxz     :     0.025212
      dyz     :     0.014877
      dx2y2   :     0.018195
      dxy     :     0.019846
  7 H s       :     0.903471  s :     0.903471
      pz      :     0.026181  p :     0.068054
      px      :     0.025523
      py      :     0.016350
  8 H s       :     0.886480  s :     0.886480
      pz      :     0.034057  p :     0.070712
      px      :     0.022129
      py      :     0.014525
  9 C s       :     2.821728  s :     2.821728
      pz      :     1.058865  p :     3.126457
      px      :     1.025557
      py      :     1.042035
      dz2     :     0.010836  d :     0.098605
      dxz     :     0.026405
      dyz     :     0.023906
      dx2y2   :     0.009017
      dxy     :     0.028441
 10 H s       :     0.903563  s :     0.903563
      pz      :     0.017971  p :     0.062383
      px      :     0.025679
      py      :     0.018732
 11 H s       :     0.907211  s :     0.907211
      pz      :     0.022363  p :     0.069710
      px      :     0.019164
      py      :     0.028184
 12 C s       :     2.863236  s :     2.863236
      pz      :     1.042489  p :     3.145358
      px      :     1.049503
      py      :     1.053366
      dz2     :     0.010025  d :     0.071801
      dxz     :     0.018288
      dyz     :     0.020152
      dx2y2   :     0.004846
      dxy     :     0.018489
 13 H s       :     0.912535  s :     0.912535
      pz      :     0.011084  p :     0.055510
      px      :     0.025286
      py      :     0.019140
 14 H s       :     0.917631  s :     0.917631
      pz      :     0.020496  p :     0.057730
      px      :     0.020771
      py      :     0.016463
 15 H s       :     0.906043  s :     0.906043
      pz      :     0.020804  p :     0.063038
      px      :     0.013512
      py      :     0.028722
 16 S s       :     5.513559  s :     5.513559
      pz      :     3.063081  p :     9.959129
      px      :     3.489919
      py      :     3.406129
      dz2     :     0.038593  d :     0.130881
      dxz     :     0.031246
      dyz     :     0.022106
      dx2y2   :     0.014423
      dxy     :     0.024512
 17 C s       :     2.925730  s :     2.925730
      pz      :     1.075007  p :     3.175099
      px      :     1.060463
      py      :     1.039629
      dz2     :     0.025191  d :     0.085421
      dxz     :     0.019394
      dyz     :     0.011063
      dx2y2   :     0.014642
      dxy     :     0.015130
 18 C s       :     2.877338  s :     2.877338
      pz      :     1.052451  p :     3.118841
      px      :     1.035638
      py      :     1.030752
      dz2     :     0.023489  d :     0.090742
      dxz     :     0.026163
      dyz     :     0.020775
      dx2y2   :     0.008624
      dxy     :     0.011692
 19 C s       :     2.862112  s :     2.862112
      pz      :     1.031789  p :     3.077699
      px      :     1.034753
      py      :     1.011157
      dz2     :     0.027255  d :     0.107044
      dxz     :     0.024880
      dyz     :     0.017514
      dx2y2   :     0.019510
      dxy     :     0.017885
 20 C s       :     2.904810  s :     2.904810
      pz      :     1.011218  p :     3.196821
      px      :     1.096096
      py      :     1.089506
      dz2     :     0.030172  d :     0.107679
      dxz     :     0.023336
      dyz     :     0.019464
      dx2y2   :     0.016968
      dxy     :     0.017738
 21 H s       :     0.897418  s :     0.897418
      pz      :     0.011223  p :     0.061398
      px      :     0.029624
      py      :     0.020551
 22 C s       :     2.821133  s :     2.821133
      pz      :     1.040037  p :     3.130377
      px      :     1.032066
      py      :     1.058275
      dz2     :     0.015112  d :     0.084935
      dxz     :     0.028635
      dyz     :     0.006760
      dx2y2   :     0.016080
      dxy     :     0.018349
 23 H s       :     0.891478  s :     0.891478
      pz      :     0.032538  p :     0.076074
      px      :     0.026079
      py      :     0.017457
 24 H s       :     0.895221  s :     0.895221
      pz      :     0.018084  p :     0.073832
      px      :     0.017810
      py      :     0.037937
 25 C s       :     2.843157  s :     2.843157
      pz      :     1.062765  p :     3.105229
      px      :     1.001408
      py      :     1.041056
      dz2     :     0.019678  d :     0.079037
      dxz     :     0.015763
      dyz     :     0.008465
      dx2y2   :     0.014593
      dxy     :     0.020539
 26 H s       :     0.906910  s :     0.906910
      pz      :     0.017088  p :     0.066973
      px      :     0.015873
      py      :     0.034012
 27 H s       :     0.903859  s :     0.903859
      pz      :     0.040076  p :     0.072096
      px      :     0.017416
      py      :     0.014604
 28 C s       :     2.857551  s :     2.857551
      pz      :     1.045267  p :     3.154778
      px      :     1.022984
      py      :     1.086527
      dz2     :     0.019228  d :     0.063945
      dxz     :     0.010817
      dyz     :     0.004382
      dx2y2   :     0.014612
      dxy     :     0.014907
 29 H s       :     0.909702  s :     0.909702
      pz      :     0.014122  p :     0.068210
      px      :     0.016240
      py      :     0.037848
 30 H s       :     0.911829  s :     0.911829
      pz      :     0.036624  p :     0.058451
      px      :     0.011041
      py      :     0.010786
 31 H s       :     0.908260  s :     0.908260
      pz      :     0.015070  p :     0.069125
      px      :     0.032923
      py      :     0.021133
 32 H s       :     0.909772  s :     0.909772
      pz      :     0.038472  p :     0.081430
      px      :     0.027550
      py      :     0.015407
 33 H s       :     0.897064  s :     0.897064
      pz      :     0.043522  p :     0.076409
      px      :     0.016017
      py      :     0.016870


                      *****************************
                      * MAYER POPULATION ANALYSIS *
                      *****************************

  NA   - Mulliken gross atomic population
  ZA   - Total nuclear charge
  QA   - Mulliken gross atomic charge
  VA   - Mayer's total valence
  BVA  - Mayer's bonded valence
  FA   - Mayer's free valence

  ATOM       NA         ZA         QA         VA         BVA        FA
  0 S     15.8484    16.0000     0.1516     2.5233     2.5233     0.0000
  1 C      6.1320     6.0000    -0.1320     3.8321     3.8321    -0.0000
  2 C      6.0840     6.0000    -0.0840     3.9823     3.9823     0.0000
  3 C      5.9916     6.0000     0.0084     3.9171     3.9171     0.0000
  4 C      6.1965     6.0000    -0.1965     3.9028     3.9028     0.0000
  5 H      0.9501     1.0000     0.0499     0.9961     0.9961    -0.0000
  6 C      5.9435     6.0000     0.0565     3.9566     3.9566    -0.0000
  7 H      0.9795     1.0000     0.0205     0.9946     0.9946     0.0000
  8 H      0.9582     1.0000     0.0418     0.9810     0.9810    -0.0000
  9 C      6.0497     6.0000    -0.0497     4.0696     4.0696     0.0000
 10 H      0.9620     1.0000     0.0380     0.9825     0.9825     0.0000
 11 H      0.9713     1.0000     0.0287     0.9767     0.9767     0.0000
 12 C      6.1028     6.0000    -0.1028     3.9920     3.9920     0.0000
 13 H      0.9478     1.0000     0.0522     0.9795     0.9795     0.0000
 14 H      0.9731     1.0000     0.0269     0.9851     0.9851     0.0000
 15 H      0.9558     1.0000     0.0442     0.9921     0.9921     0.0000
 16 S     15.8999    16.0000     0.1001     2.4723     2.4723    -0.0000
 17 C      6.0856     6.0000    -0.0856     3.8533     3.8533     0.0000
 18 C      6.0730     6.0000    -0.0730     3.9641     3.9641     0.0000
 19 C      6.0148     6.0000    -0.0148     4.0249     4.0249    -0.0000
 20 C      6.1777     6.0000    -0.1777     3.8945     3.8945     0.0000
 21 H      0.9603     1.0000     0.0397     0.9959     0.9959     0.0000
 22 C      5.8961     6.0000     0.1039     3.9254     3.9254    -0.0000
 23 H      0.9900     1.0000     0.0100     0.9916     0.9916    -0.0000
 24 H      0.9887     1.0000     0.0113     1.0001     1.0001    -0.0000
 25 C      6.0359     6.0000    -0.0359     4.0723     4.0723    -0.0000
 26 H      0.9606     1.0000     0.0394     0.9797     0.9797    -0.0000
 27 H      0.9710     1.0000     0.0290     0.9789     0.9789     0.0000
 28 C      6.0839     6.0000    -0.0839     3.9868     3.9868    -0.0000
 29 H      0.9770     1.0000     0.0230     0.9893     0.9893    -0.0000
 30 H      0.9546     1.0000     0.0454     0.9923     0.9923     0.0000
 31 H      0.9714     1.0000     0.0286     0.9845     0.9845    -0.0000
 32 H      0.9665     1.0000     0.0335     1.0058     1.0058     0.0000
 33 H      0.9467     1.0000     0.0533     0.9958     0.9958    -0.0000

  Mayer bond orders larger than 0.100000
B(  0-S ,  1-C ) :   1.1554 B(  0-S ,  4-C ) :   1.1789 B(  1-C ,  2-C ) :   1.5711 
B(  1-C , 32-H ) :   0.9751 B(  2-C ,  3-C ) :   1.2485 B(  2-C ,  6-C ) :   1.0234 
B(  3-C ,  4-C ) :   1.5751 B(  3-C ,  5-H ) :   0.9803 B(  4-C , 20-C ) :   1.0043 
B(  6-C ,  7-H ) :   0.9431 B(  6-C ,  8-H ) :   0.9341 B(  6-C ,  9-C ) :   1.0648 
B(  9-C , 10-H ) :   0.9490 B(  9-C , 11-H ) :   0.9534 B(  9-C , 12-C ) :   1.0805 
B( 12-C , 13-H ) :   0.9725 B( 12-C , 14-H ) :   0.9720 B( 12-C , 15-H ) :   0.9730 
B( 16-S , 17-C ) :   1.1568 B( 16-S , 20-C ) :   1.1424 B( 17-C , 18-C ) :   1.6251 
B( 17-C , 33-H ) :   0.9652 B( 18-C , 19-C ) :   1.2423 B( 18-C , 21-H ) :   0.9710 
B( 19-C , 20-C ) :   1.6100 B( 19-C , 22-C ) :   1.0299 B( 22-C , 23-H ) :   0.9108 
B( 22-C , 24-H ) :   0.9248 B( 22-C , 25-C ) :   1.0657 B( 25-C , 26-H ) :   0.9612 
B( 25-C , 27-H ) :   0.9557 B( 25-C , 28-C ) :   1.0655 B( 28-C , 29-H ) :   0.9751 
B( 28-C , 30-H ) :   0.9781 B( 28-C , 31-H ) :   0.9757 

-------
TIMINGS
-------

Total SCF time: 0 days 0 hours 0 min 26 sec 

Total time                  ....      26.134 sec
Sum of individual times     ....      25.239 sec  ( 96.6%)

Fock matrix formation       ....      23.344 sec  ( 89.3%)
  XC integration            ....       1.776 sec  (  7.6% of F)
    Basis function eval.    ....       0.207 sec  ( 11.6% of XC)
    Density eval.           ....       0.145 sec  (  8.1% of XC)
    XC-Functional eval.     ....       0.169 sec  (  9.5% of XC)
    XC-Potential eval.      ....       0.177 sec  ( 10.0% of XC)
Diagonalization             ....       0.139 sec  (  0.5%)
Density matrix formation    ....       0.017 sec  (  0.1%)
Population analysis         ....       0.047 sec  (  0.2%)
Initial guess               ....       0.198 sec  (  0.8%)
Orbital Transformation      ....       0.000 sec  (  0.0%)
Orbital Orthonormalization  ....       0.000 sec  (  0.0%)
DIIS solution               ....       0.160 sec  (  0.6%)
SOSCF solution              ....       0.109 sec  (  0.4%)
Grid generation             ....       1.225 sec  (  4.7%)


-------------------------------------------------------------------------------
                          DFT DISPERSION CORRECTION                            
                                                                               
                              DFTD3 V3.1  Rev 1                                
                              USING zero damping                               
-------------------------------------------------------------------------------
The omegaB97X-D3 functional is recognized. Fit by Chai et al.
Active option DFTDOPT                   ...         3   

molecular C6(AA) [au] = 14193.510731 


            DFT-D V3
 parameters
 s6 scaling factor         :     1.0000 
 rs6 scaling factor        :     1.2810 
 s8 scaling factor         :     1.0000 
 rs8 scaling factor        :     1.0940 
 Damping factor alpha6     :    14.0000 
 Damping factor alpha8     :    16.0000 
 ad hoc parameters k1-k3   :    16.0000     1.3333    -4.0000 

 Edisp/kcal,au: -8.932271708884  -0.014234479518 
 E6   /kcal   :  -3.965414466 
 E8   /kcal   :  -4.966857243 
 % E8         :  55.605756349 

-------------------------   ----------------
Dispersion correction           -0.014234480
-------------------------   ----------------


-------------------------   --------------------
FINAL SINGLE POINT ENERGY     -1339.852053198049
-------------------------   --------------------


                            ***************************************
                            *     ORCA property calculations      *
                            ***************************************

                                    ---------------------
                                    Active property flags
                                    ---------------------
   (+) Dipole Moment


------------------------------------------------------------------------------
                       ORCA ELECTRIC PROPERTIES CALCULATION
------------------------------------------------------------------------------

Dipole Moment Calculation                       ... on
Quadrupole Moment Calculation                   ... off
Polarizability Calculation                      ... off
GBWName                                         ... config_7592.gbw
Electron density file                           ... config_7592.scfp
The origin for moment calculation is the CENTER OF MASS  = (-66.390652, 119.586459 208.679502)

-------------
DIPOLE MOMENT
-------------
                                X             Y             Z
Electronic contribution:     14.49431      11.72026      -8.43956
Nuclear contribution   :    -15.04667     -12.09842       8.80710
                        -----------------------------------------
Total Dipole Moment    :     -0.55236      -0.37815       0.36754
                        -----------------------------------------
Magnitude (a.u.)       :      0.76367
Magnitude (Debye)      :      1.94109



--------------------
Rotational spectrum 
--------------------
 
Rotational constants in cm-1:     0.021786     0.007246     0.006471 
Rotational constants in MHz :   653.116078   217.219107   194.000420 

 Dipole components along the rotational axes: 
x,y,z [a.u.] :     0.141703     0.697240     0.277429 
x,y,z [Debye]:     0.360181     1.772242     0.705168 

 

Timings for individual modules:

Sum of individual times         ...       27.154 sec (=   0.453 min)
GTO integral calculation        ...        0.699 sec (=   0.012 min)   2.6 %
SCF iterations                  ...       26.455 sec (=   0.441 min)  97.4 %
                             ****ORCA TERMINATED NORMALLY****
TOTAL RUN TIME: 0 days 0 hours 0 minutes 27 seconds 796 msec
