
                                 *****************
                                 * O   R   C   A *
                                 *****************

           --- An Ab Initio, DFT and Semiempirical electronic structure package ---

                  #######################################################
                  #                        -***-                        #
                  #          Department of theory and spectroscopy      #
                  #               Directorship: Frank Neese             #
                  #        Max Planck Institute fuer Kohlenforschung    #
                  #                Kaiser Wilhelm Platz 1               #
                  #                 D-45470 Muelheim/Ruhr               #
                  #                      Germany                        #
                  #                                                     #
                  #                  All rights reserved                #
                  #                        -***-                        #
                  #######################################################


                         Program Version 4.2.1 -  RELEASE  -


 With contributions from (in alphabetic order):
   Daniel Aravena         : Magnetic Suceptibility
   Michael Atanasov       : Ab Initio Ligand Field Theory (pilot matlab implementation)
   Alexander A. Auer      : GIAO ZORA, VPT2
   Ute Becker             : Parallelization
   Giovanni Bistoni       : ED, misc. LED, open-shell LED, HFLD
   Martin Brehm           : Molecular dynamics
   Dmytro Bykov           : SCF Hessian
   Vijay G. Chilkuri      : MRCI spin determinant printing, contributions to CSF-ICE
   Dipayan Datta          : RHF DLPNO-CCSD density
   Achintya Kumar Dutta   : EOM-CC, STEOM-CC
   Dmitry Ganyushin       : Spin-Orbit,Spin-Spin,Magnetic field MRCI
   Miquel Garcia          : C-PCM Hessian, Gaussian charge scheme
   Yang Guo               : DLPNO-NEVPT2, CIM, IAO-localization
   Andreas Hansen         : Spin unrestricted coupled pair/coupled cluster methods
   Benjamin Helmich-Paris : CASSCF linear response (MC-RPA)
   Lee Huntington         : MR-EOM, pCC
   Robert Izsak           : Overlap fitted RIJCOSX, COSX-SCS-MP3, EOM
   Christian Kollmar      : KDIIS, OOCD, Brueckner-CCSD(T), CCSD density
   Simone Kossmann        : Meta GGA functionals, TD-DFT gradient, OOMP2, MP2 Hessian
   Martin Krupicka        : AUTO-CI
   Lucas Lang             : DCDCAS
   Dagmar Lenk            : GEPOL surface, SMD
   Dimitrios Liakos       : Extrapolation schemes; Compound Job, initial MDCI parallelization
   Dimitrios Manganas     : Further ROCIS development; embedding schemes
   Dimitrios Pantazis     : SARC Basis sets
   Taras Petrenko         : DFT Hessian,TD-DFT gradient, ASA, ECA, R-Raman, ABS, FL, XAS/XES, NRVS
   Peter Pinski           : DLPNO-MP2, DLPNO-MP2 Gradient
   Christoph Reimann      : Effective Core Potentials
   Marius Retegan         : Local ZFS, SOC
   Christoph Riplinger    : Optimizer, TS searches, QM/MM, DLPNO-CCSD(T), (RO)-DLPNO pert. Triples
   Tobias Risthaus        : Range-separated hybrids, TD-DFT gradient, RPA, STAB
   Michael Roemelt        : Original ROCIS implementation
   Masaaki Saitow         : Open-shell DLPNO-CCSD energy and density
   Barbara Sandhoefer     : DKH picture change effects
   Avijit Sen             : IP-ROCIS
   Kantharuban Sivalingam : CASSCF convergence, NEVPT2, FIC-MRCI
   Bernardo de Souza      : ESD, SOC TD-DFT
   Georgi Stoychev        : AutoAux, RI-MP2 NMR
   Willem Van den Heuvel  : Paramagnetic NMR
   Boris Wezisla          : Elementary symmetry handling
   Frank Wennmohs         : Technical directorship


 We gratefully acknowledge several colleagues who have allowed us to
 interface, adapt or use parts of their codes:
   Stefan Grimme, W. Hujo, H. Kruse,             : VdW corrections, initial TS optimization,
                  C. Bannwarth                     DFT functionals, gCP, sTDA/sTD-DF
   Ed Valeev, F. Pavosevic, A. Kumar             : LibInt (2-el integral package), F12 methods
   Garnet Chan, S. Sharma, J. Yang, R. Olivares  : DMRG
   Ulf Ekstrom                                   : XCFun DFT Library
   Mihaly Kallay                                 : mrcc  (arbitrary order and MRCC methods)
   Andreas Klamt, Michael Diedenhofen            : otool_cosmo (COSMO solvation model)
   Jiri Pittner, Ondrej Demel                    : Mk-CCSD
   Frank Weinhold                                : gennbo (NPA and NBO analysis)
   Christopher J. Cramer and Donald G. Truhlar   : smd solvation model
   Lars Goerigk                                  : TD-DFT with DH, B97 family of functionals
   V. Asgeirsson, H. Jonsson                     : NEB implementation
   FAccTs GmbH                                   : IRC, NEB, NEB-TS, Multilevel, MM, QM/MM, CI optimization
   S Lehtola, MJT Oliveira, MAL Marques          : LibXC Library


 Your calculation uses the libint2 library for the computation of 2-el integrals
 For citations please refer to: http://libint.valeyev.net

 Your ORCA version has been built with support for libXC version: 4.2.3
 For citations please refer to: https://tddft.org/programs/libxc/

 This ORCA versions uses:
   CBLAS   interface :  Fast vector & matrix operations
   LAPACKE interface :  Fast linear algebra routines
   SCALAPACK package :  Parallel linear algebra routines


Your calculation utilizes the atom-pairwise dispersion correction
with the zero-damping scheme (D30)
Cite in your paper:
S.Grimme, J.Antony, S.Ehrlich and H.Krieg, J.Chem.Phys., 132, (2010), 154104 
   

XCFun DFT library Copyright 2009-2010 Ulf Ekstrom and contributors.
See http://admol.org/xcfun for more information. This is free soft-
ware; see the source code for copying conditions. There is ABSOLUTELY
NO WARRANTY; not even for MERCHANTABILITY or FITNESS FOR A PARTICULAR
PURPOSE. For details see the documentation. Scientific users of this 
library should cite U. Ekstrom, L. Visscher, R. Bast, A. J. Thorvald-
sen and K. Ruud; J.Chem.Theor.Comp. 2010, DOI: 10.1021/ct100117s
XCFun Version 0.99 
----- Orbital basis set information -----
Your calculation utilizes the basis: def2-SVP
   F. Weigend and R. Ahlrichs, Phys. Chem. Chem. Phys. 7, 3297 (2005).

================================================================================
                                        WARNINGS
                       Please study these warnings very carefully!
================================================================================


INFO   : the flag for use of LIBINT has been found!

================================================================================
                                       INPUT FILE
================================================================================
NAME = config_1208.inp
|  1> ! wB97X-D3 SP def2-SVP
|  2> %pal
|  3> nprocs 16
|  4> end
|  5> 
|  6> * xyz 0 1
|  7> S 	 0.267771 	 26.3561 	 37.7041 	 
|  8> C 	 -1.14321 	 26.4782 	 36.6752 	 
|  9> C 	 -1.76192 	 25.2707 	 36.5697 	 
| 10> C 	 -1.07097 	 24.2021 	 37.2633 	 
| 11> C 	 0.131175 	 24.6501 	 37.7607 	 
| 12> H 	 -1.38118 	 23.1635 	 37.4381 	 
| 13> C 	 -3.13999 	 25.0522 	 36.094 	 
| 14> H 	 -3.93014 	 25.7954 	 36.2656 	 
| 15> H 	 -3.49365 	 24.1998 	 36.6272 	 
| 16> C 	 -3.15265 	 24.7518 	 34.5783 	 
| 17> H 	 -2.93695 	 25.617 	 33.879 	 
| 18> H 	 -2.46358 	 23.9644 	 34.3257 	 
| 19> C 	 -4.38456 	 24.0282 	 34.0384 	 
| 20> H 	 -4.96209 	 23.4866 	 34.8327 	 
| 21> H 	 -5.10512 	 24.7591 	 33.7222 	 
| 22> H 	 -4.11813 	 23.3295 	 33.3053 	 
| 23> S 	 2.55879 	 24.6661 	 39.0909 	 
| 24> C 	 3.34754 	 23.1191 	 39.4916 	 
| 25> C 	 2.58789 	 22.0752 	 39.1013 	 
| 26> C 	 1.38866 	 22.4696 	 38.4726 	 
| 27> C 	 1.13433 	 23.8801 	 38.496 	 
| 28> H 	 2.95017 	 21.0465 	 39.0388 	 
| 29> C 	 0.677353 	 21.3876 	 37.742 	 
| 30> H 	 1.30309 	 20.5459 	 37.4213 	 
| 31> H 	 0.37382 	 21.8419 	 36.7636 	 
| 32> C 	 -0.550912 	 20.7543 	 38.5317 	 
| 33> H 	 -1.18887 	 21.5588 	 38.7892 	 
| 34> H 	 -0.0918543 	 20.2173 	 39.3621 	 
| 35> C 	 -1.30171 	 19.7109 	 37.6648 	 
| 36> H 	 -2.01452 	 19.2846 	 38.3104 	 
| 37> H 	 -0.644785 	 18.8697 	 37.3771 	 
| 38> H 	 -1.85342 	 20.1016 	 36.8123 	 
| 39> H 	 -1.52458 	 27.3089 	 36.1061 	 
| 40> H 	 4.30586 	 23.0355 	 39.8677 	 
| 41> *
| 42> 
| 43>                          ****END OF INPUT****
================================================================================

                       ****************************
                       * Single Point Calculation *
                       ****************************

---------------------------------
CARTESIAN COORDINATES (ANGSTROEM)
---------------------------------
  S      0.267771   26.356100   37.704100
  C     -1.143210   26.478200   36.675200
  C     -1.761920   25.270700   36.569700
  C     -1.070970   24.202100   37.263300
  C      0.131175   24.650100   37.760700
  H     -1.381180   23.163500   37.438100
  C     -3.139990   25.052200   36.094000
  H     -3.930140   25.795400   36.265600
  H     -3.493650   24.199800   36.627200
  C     -3.152650   24.751800   34.578300
  H     -2.936950   25.617000   33.879000
  H     -2.463580   23.964400   34.325700
  C     -4.384560   24.028200   34.038400
  H     -4.962090   23.486600   34.832700
  H     -5.105120   24.759100   33.722200
  H     -4.118130   23.329500   33.305300
  S      2.558790   24.666100   39.090900
  C      3.347540   23.119100   39.491600
  C      2.587890   22.075200   39.101300
  C      1.388660   22.469600   38.472600
  C      1.134330   23.880100   38.496000
  H      2.950170   21.046500   39.038800
  C      0.677353   21.387600   37.742000
  H      1.303090   20.545900   37.421300
  H      0.373820   21.841900   36.763600
  C     -0.550912   20.754300   38.531700
  H     -1.188870   21.558800   38.789200
  H     -0.091854   20.217300   39.362100
  C     -1.301710   19.710900   37.664800
  H     -2.014520   19.284600   38.310400
  H     -0.644785   18.869700   37.377100
  H     -1.853420   20.101600   36.812300
  H     -1.524580   27.308900   36.106100
  H      4.305860   23.035500   39.867700

----------------------------
CARTESIAN COORDINATES (A.U.)
----------------------------
  NO LB      ZA    FRAG     MASS         X           Y           Z
   0 S    16.0000    0    32.060    0.506014   49.805811   71.250423
   1 C     6.0000    0    12.011   -2.160354   50.036547   69.306084
   2 C     6.0000    0    12.011   -3.329546   47.754702   69.106718
   3 C     6.0000    0    12.011   -2.023840   45.735341   70.417432
   4 C     6.0000    0    12.011    0.247885   46.581938   71.357382
   5 H     1.0000    0     1.008   -2.610052   43.772671   70.747756
   6 C     6.0000    0    12.011   -5.933721   47.341797   68.207775
   7 H     1.0000    0     1.008   -7.426888   48.746242   68.532052
   8 H     1.0000    0     1.008   -6.602042   45.730994   69.215377
   9 C     6.0000    0    12.011   -5.957645   46.774123   65.343517
  10 H     1.0000    0     1.008   -5.550031   48.409114   64.022032
  11 H     1.0000    0     1.008   -4.655492   45.286153   64.866172
  12 C     6.0000    0    12.011   -8.285618   45.406717   64.323254
  13 H     1.0000    0     1.008   -9.376991   44.383242   65.824264
  14 H     1.0000    0     1.008   -9.647279   46.787918   63.725723
  15 H     1.0000    0     1.008   -7.782138   44.086366   62.937896
  16 S    16.0000    0    32.060    4.835412   46.612174   73.871095
  17 C     6.0000    0    12.011    6.325934   43.688767   74.628309
  18 C     6.0000    0    12.011    4.890403   41.716082   73.890748
  19 C     6.0000    0    12.011    2.624187   42.461390   72.702678
  20 C     6.0000    0    12.011    2.143573   45.126849   72.746897
  21 H     1.0000    0     1.008    5.575013   39.772121   73.772641
  22 C     6.0000    0    12.011    1.280012   40.416707   71.322044
  23 H     1.0000    0     1.008    2.462483   38.826124   70.716009
  24 H     1.0000    0     1.008    0.706417   41.275209   69.473136
  25 C     6.0000    0    12.011   -1.041073   39.219943   72.814360
  26 H     1.0000    0     1.008   -2.246639   40.740228   73.300965
  27 H     1.0000    0     1.008   -0.173579   38.205160   74.383589
  28 C     6.0000    0    12.011   -2.459875   37.248203   71.176157
  29 H     1.0000    0     1.008   -3.806891   36.442613   72.396164
  30 H     1.0000    0     1.008   -1.218467   35.658565   70.632483
  31 H     1.0000    0     1.008   -3.502456   37.986519   69.565165
  32 H     1.0000    0     1.008   -2.881039   51.606342   68.230641
  33 H     1.0000    0     1.008    8.136896   43.530786   75.339035

--------------------------------
INTERNAL COORDINATES (ANGSTROEM)
--------------------------------
 S      0   0   0     0.000000000000     0.00000000     0.00000000
 C      1   0   0     1.750545915525     0.00000000     0.00000000
 C      2   1   0     1.360877865240   110.49510859     0.00000000
 C      3   2   1     1.449275274922   113.60186967   357.01351670
 C      4   3   2     1.375959069531   110.45467486   354.11486675
 H      4   3   2     1.097941366422   129.71544445   172.99333912
 C      3   2   1     1.474147097443   125.55905513   163.12392901
 H      7   3   2     1.098239419480   121.45663724   328.06738959
 H      7   3   2     1.065815835686   105.50369575   211.79840928
 C      7   3   2     1.545233615218   110.67099865    93.53837150
 H     10   7   3     1.133189313398   117.08580570   287.65959395
 H     10   7   3     1.076393508388   111.54010963    51.32039490
 C     10   7   3     1.527315035643   116.45223564   158.81657082
 H     13  10   7     1.121509674903   113.19059765   339.73401608
 H     13  10   7     1.073966462977   108.83301242    91.23012978
 H     13  10   7     1.047187779197   110.99975734   218.44048084
 S      5   4   3     2.768212894310   160.35105524   177.24079607
 C     17   5   4     1.782104388777   119.41722926    18.82292718
 C     18  17   5     1.348751060241   110.94811289   358.12401092
 C     19  18  17     1.410307641226   113.04685969     0.63215342
 C     20  19  18     1.433436974164   114.75726104   353.55325249
 H     19  18  17     1.092417840572   123.95934276   166.01221276
 C     20  19  18     1.486760911596   114.98390840   166.07879472
 H     23  20  19     1.096747087149   115.41983113   336.49002120
 H     23  20  19     1.120619173533   105.28340789   224.69303078
 C     23  20  19     1.591643769889   114.51654538   100.37234086
 H     26  23  20     1.058544713162   106.46180236    54.88624705
 H     26  23  20     1.090260121223   104.41539115   291.33342797
 C     26  23  20     1.550450517367   111.34871550   175.79315372
 H     29  26  23     1.051964422450   104.93339787   173.89616055
 H     29  26  23     1.105413581256   111.70691957    60.99481292
 H     29  26  23     1.088019606487   116.23079190   291.13380521
 H      2   1   3     1.076745270201   130.53766044   184.04213836
 H     18  17   5     1.032868526193   124.24863899   171.30542466

---------------------------
INTERNAL COORDINATES (A.U.)
---------------------------
 S      0   0   0     0.000000000000     0.00000000     0.00000000
 C      1   0   0     3.308052365197     0.00000000     0.00000000
 C      2   1   0     2.571686467019   110.49510859     0.00000000
 C      3   2   1     2.738733362266   113.60186967   357.01351670
 C      4   3   2     2.600185812899   110.45467486   354.11486675
 H      4   3   2     2.074808493640   129.71544445   172.99333912
 C      3   2   1     2.785734295282   125.55905513   163.12392901
 H      7   3   2     2.075371732294   121.45663724   328.06738959
 H      7   3   2     2.014100038644   105.50369575   211.79840928
 C      7   3   2     2.920068345691   110.67099865    93.53837150
 H     10   7   3     2.141417460209   117.08580570   287.65959395
 H     10   7   3     2.034088943184   111.54010963    51.32039490
 C     10   7   3     2.886207137585   116.45223564   158.81657082
 H     13  10   7     2.119346142109   113.19059765   339.73401608
 H     13  10   7     2.029502492043   108.83301242    91.23012978
 H     13  10   7     1.978898113472   110.99975734   218.44048084
 S      5   4   3     5.231164250636   160.35105524   177.24079607
 C     17   5   4     3.367689236849   119.41722926    18.82292718
 C     18  17   5     2.548770126691   110.94811289   358.12401092
 C     19  18  17     2.665095206493   113.04685969     0.63215342
 C     20  19  18     2.708803311406   114.75726104   353.55325249
 H     19  18  17     2.064370542491   123.95934276   166.01221276
 C     20  19  18     2.809570949535   114.98390840   166.07879472
 H     23  20  19     2.072551632887   115.41983113   336.49002120
 H     23  20  19     2.117663338398   105.28340789   224.69303078
 C     23  20  19     3.007770827851   114.51654538   100.37234086
 H     26  23  20     2.000359608387   106.46180236    54.88624705
 H     26  23  20     2.060293043847   104.41539115   291.33342797
 C     26  23  20     2.929926862020   111.34871550   175.79315372
 H     29  26  23     1.987924661059   104.93339787   173.89616055
 H     29  26  23     2.088928933291   111.70691957    60.99481292
 H     29  26  23     2.056059084597   116.23079190   291.13380521
 H      2   1   3     2.034753676675   130.53766044   184.04213836
 H     18  17   5     1.951838646852   124.24863899   171.30542466

---------------------
BASIS SET INFORMATION
---------------------
There are 3 groups of distinct atoms

 Group   1 Type S   : 10s7p1d contracted to 4s3p1d pattern {5311/511/1}
 Group   2 Type C   : 7s4p1d contracted to 3s2p1d pattern {511/31/1}
 Group   3 Type H   : 4s1p contracted to 2s1p pattern {31/1}

Atom   0S    basis set group =>   1
Atom   1C    basis set group =>   2
Atom   2C    basis set group =>   2
Atom   3C    basis set group =>   2
Atom   4C    basis set group =>   2
Atom   5H    basis set group =>   3
Atom   6C    basis set group =>   2
Atom   7H    basis set group =>   3
Atom   8H    basis set group =>   3
Atom   9C    basis set group =>   2
Atom  10H    basis set group =>   3
Atom  11H    basis set group =>   3
Atom  12C    basis set group =>   2
Atom  13H    basis set group =>   3
Atom  14H    basis set group =>   3
Atom  15H    basis set group =>   3
Atom  16S    basis set group =>   1
Atom  17C    basis set group =>   2
Atom  18C    basis set group =>   2
Atom  19C    basis set group =>   2
Atom  20C    basis set group =>   2
Atom  21H    basis set group =>   3
Atom  22C    basis set group =>   2
Atom  23H    basis set group =>   3
Atom  24H    basis set group =>   3
Atom  25C    basis set group =>   2
Atom  26H    basis set group =>   3
Atom  27H    basis set group =>   3
Atom  28C    basis set group =>   2
Atom  29H    basis set group =>   3
Atom  30H    basis set group =>   3
Atom  31H    basis set group =>   3
Atom  32H    basis set group =>   3
Atom  33H    basis set group =>   3


           ************************************************************
           *        Program running with 16 parallel MPI-processes    *
           *              working on a common directory               *
           ************************************************************
------------------------------------------------------------------------------
                           ORCA GTO INTEGRAL CALCULATION
------------------------------------------------------------------------------

                         BASIS SET STATISTICS AND STARTUP INFO

 # of primitive gaussian shells          ...  294
 # of primitive gaussian functions       ...  534
 # of contracted shells                  ...  154
 # of contracted basis functions         ...  322
 Highest angular momentum                ...    2
 Maximum contraction depth               ...    5
 Integral package used                   ... LIBINT
 Integral threshhold            Thresh   ...  1.000e-10
 Primitive cut-off              TCut     ...  1.000e-11


------------------------------ INTEGRAL EVALUATION ----------------------------


 * One electron integrals 
 Pre-screening matrix                    ... done
 Shell pair data                         ... done (   0.003 sec)



           ************************************************************
           *        Program running with 16 parallel MPI-processes    *
           *              working on a common directory               *
           ************************************************************
-------------------------------------------------------------------------------
                                 ORCA SCF
-------------------------------------------------------------------------------

------------
SCF SETTINGS
------------
Hamiltonian:
 Density Functional     Method          .... DFT(GTOs)
 Exchange Functional    Exchange        .... WB97X-D3
 Correlation Functional Correlation     .... WB97X-D3
 Gradients option       PostSCFGGA      .... off
 Hybrid DFT is turned on
   Fraction HF Exchange ScalHFX         ....  0.195728
   Scaling of DF-GGA-X  ScalDFX         ....  0.000000
   Scaling of DF-GGA-C  ScalDFC         ....  1.000000
   Scaling of DF-LDA-C  ScalLDAC        ....  1.000000
   Perturbative correction              ....  0.000000
   Density functional embedding theory  .... OFF
 Long-range corrected/Screened/Range-Separated Hybrid DFT is turned on
   Amount of maximum screened exact exchange              ....  0.804272
   Range separation parameter mu (erf(mu*r12)/r12)        ....  0.250000


General Settings:
 Integral files         IntName         .... config_1208
 Hartree-Fock type      HFTyp           .... RHF
 Total Charge           Charge          ....    0
 Multiplicity           Mult            ....    1
 Number of Electrons    NEL             ....  134
 Basis Dimension        Dim             ....  322
 Nuclear Repulsion      ENuc            ....   1284.7117518291 Eh

Convergence Acceleration:
 DIIS                   CNVDIIS         .... on
   Start iteration      DIISMaxIt       ....    12
   Startup error        DIISStart       ....  0.200000
   # of expansion vecs  DIISMaxEq       ....     5
   Bias factor          DIISBfac        ....   1.050
   Max. coefficient     DIISMaxC        ....  10.000
 Newton-Raphson         CNVNR           .... off
 SOSCF                  CNVSOSCF        .... on
   Start iteration      SOSCFMaxIt      ....   150
   Startup grad/error   SOSCFStart      ....  0.003300
 Level Shifting         CNVShift        .... on
   Level shift para.    LevelShift      ....    0.2500
   Turn off err/grad.   ShiftErr        ....    0.0010
 Zerner damping         CNVZerner       .... off
 Static damping         CNVDamp         .... on
   Fraction old density DampFac         ....    0.7000
   Max. Damping (<1)    DampMax         ....    0.9800
   Min. Damping (>=0)   DampMin         ....    0.0000
   Turn off err/grad.   DampErr         ....    0.1000
 Fernandez-Rico         CNVRico         .... off

SCF Procedure:
 Maximum # iterations   MaxIter         ....   125
 SCF integral mode      SCFMode         .... Direct
   Integral package                     .... LIBINT
 Reset frequency        DirectResetFreq ....    20
 Integral Threshold     Thresh          ....  1.000e-10 Eh
 Primitive CutOff       TCut            ....  1.000e-11 Eh

Convergence Tolerance:
 Convergence Check Mode ConvCheckMode   .... Total+1el-Energy
 Convergence forced     ConvForced      .... 0
 Energy Change          TolE            ....  1.000e-06 Eh
 1-El. energy change                    ....  1.000e-03 Eh
 Orbital Gradient       TolG            ....  5.000e-05
 Orbital Rotation angle TolX            ....  5.000e-05
 DIIS Error             TolErr          ....  1.000e-06


Diagonalization of the overlap matrix:
Smallest eigenvalue                        ... 6.461e-04
Time for diagonalization                   ...    0.016 sec
Threshold for overlap eigenvalues          ... 1.000e-08
Number of eigenvalues below threshold      ... 0
Time for construction of square roots      ...    0.024 sec
Total time needed                          ...    0.040 sec

-------------------
DFT GRID GENERATION
-------------------

General Integration Accuracy     IntAcc      ...  4.340
Radial Grid Type                 RadialGrid  ... Gauss-Chebyshev
Angular Grid (max. acc.)         AngularGrid ... Lebedev-110
Angular grid pruning method      GridPruning ... 3 (G Style)
Weight generation scheme         WeightScheme... Becke
Basis function cutoff            BFCut       ...    1.0000e-10
Integration weight cutoff        WCut        ...    1.0000e-14
Grids for H and He will be reduced by one unit

# of grid points (after initial pruning)     ...  41088 (   0.0 sec)
# of grid points (after weights+screening)   ...  37014 (   0.0 sec)
nearest neighbour list constructed           ...    0.0 sec
Grid point re-assignment to atoms done       ...    0.0 sec
Grid point division into batches done        ...    0.0 sec
Reduced shell lists constructed in    0.1 sec

Total number of grid points                  ...    37014
Total number of batches                      ...      594
Average number of points per batch           ...       62
Average number of grid points per atom       ...     1089
Average number of shells per batch           ...    74.00 (48.05%)
Average number of basis functions per batch  ...   147.49 (45.80%)
Average number of large shells per batch     ...    45.64 (61.68%)
Average number of large basis fcns per batch ...    95.64 (64.85%)
Maximum spatial batch extension              ...  19.49, 16.92, 17.13 au
Average spatial batch extension              ...   0.25,  0.21,  0.31 au

Time for grid setup =    0.204 sec

------------------------------
INITIAL GUESS: MODEL POTENTIAL
------------------------------
Loading Hartree-Fock densities                     ... done
Calculating cut-offs                               ... done
Setting up the integral package                    ... done
Initializing the effective Hamiltonian             ... done
Starting the Coulomb interaction                   ... done (   0.0 sec)
Reading the grid                                   ... done
Mapping shells                                     ... done
Starting the XC term evaluation                    ... done (   0.1 sec)
  promolecular density results
     # of electrons  =    133.996375216
     EX              =   -126.760180315
     EC              =     -4.628051066
     EX+EC           =   -131.388231381
Transforming the Hamiltonian                       ... done (   0.0 sec)
Diagonalizing the Hamiltonian                      ... done (   0.0 sec)
Back transforming the eigenvectors                 ... done (   0.0 sec)
Now organizing SCF variables                       ... done
                      ------------------
                      INITIAL GUESS DONE (   0.4 sec)
                      ------------------
--------------
SCF ITERATIONS
--------------
ITER       Energy         Delta-E        Max-DP      RMS-DP      [F,P]     Damp
               ***  Starting incremental Fock matrix formation  ***
  0  -1339.3862011975   0.000000000000 0.06713143  0.00161613  0.1572316 0.7000
  1  -1339.5808198447  -0.194618647167 0.04504522  0.00117141  0.0951439 0.7000
                               ***Turning on DIIS***
  2  -1339.6743502249  -0.093530380213 0.08834000  0.00218814  0.0493664 0.0000
  3  -1339.8156815432  -0.141331318281 0.04271260  0.00102558  0.0433492 0.0000
  4  -1339.8463746836  -0.030693140401 0.00827506  0.00021488  0.0078442 0.0000
  5  -1339.8473471829  -0.000972499348 0.00272868  0.00010330  0.0033545 0.0000
                      *** Initiating the SOSCF procedure ***
                           *** Shutting down DIIS ***
                      *** Re-Reading the Fockian *** 
                      *** Removing any level shift *** 
ITER      Energy       Delta-E        Grad      Rot      Max-DP    RMS-DP
  6  -1339.84756221  -0.0002150273  0.001736  0.001736  0.001987  0.000057
               *** Restarting incremental Fock matrix formation ***
  7  -1339.84762702  -0.0000648124  0.000985  0.002811  0.001741  0.000035
  8  -1339.84765341  -0.0000263839  0.000473  0.003532  0.002193  0.000047
  9  -1339.84765974  -0.0000063304  0.000417  0.000852  0.000598  0.000015
 10  -1339.84766309  -0.0000033560  0.000097  0.000229  0.000316  0.000005
 11  -1339.84766320  -0.0000001095  0.000028  0.000053  0.000131  0.000002
                  ***Gradient check signals convergence***
              ***Rediagonalizing the Fockian in SOSCF/NRSCF***

               *****************************************************
               *                     SUCCESS                       *
               *           SCF CONVERGED AFTER  12 CYCLES          *
               *****************************************************

Setting up the final grid:

General Integration Accuracy     IntAcc      ...  4.670
Radial Grid Type                 RadialGrid  ... Gauss-Chebyshev
Angular Grid (max. acc.)         AngularGrid ... Lebedev-302
Angular grid pruning method      GridPruning ... 3 (G Style)
Weight generation scheme         WeightScheme... Becke
Basis function cutoff            BFCut       ...    1.0000e-10
Integration weight cutoff        WCut        ...    1.0000e-14
Grids for H and He will be reduced by one unit

# of grid points (after initial pruning)     ... 161752 (   0.0 sec)
# of grid points (after weights+screening)   ... 142830 (   0.2 sec)
nearest neighbour list constructed           ...    0.0 sec
Grid point re-assignment to atoms done       ...    0.0 sec
Grid point division into batches done        ...    0.5 sec
Reduced shell lists constructed in    0.6 sec

Total number of grid points                  ...   142830
Total number of batches                      ...     2248
Average number of points per batch           ...       63
Average number of grid points per atom       ...     4201
Average number of shells per batch           ...    66.80 (43.38%)
Average number of basis functions per batch  ...   132.77 (41.23%)
Average number of large shells per batch     ...    40.51 (60.64%)
Average number of large basis fcns per batch ...    84.21 (63.42%)
Maximum spatial batch extension              ...  13.37, 13.11, 17.78 au
Average spatial batch extension              ...   0.15,  0.14,  0.16 au

Final grid set up in    1.1 sec
Final integration                            ... done (   0.3 sec)
Change in XC energy                          ...     0.006159112
Integrated number of electrons               ...   133.999966864
Previous integrated no of electrons          ...   133.998400668

----------------
TOTAL SCF ENERGY
----------------

Total Energy       :        -1339.84150418 Eh          -36458.94087 eV

Components:
Nuclear Repulsion  :         1284.71175183 Eh           34958.78404 eV
Electronic Energy  :        -2624.55325601 Eh          -71417.72490 eV
One Electron Energy:        -4385.81346346 Eh         -119344.05168 eV
Two Electron Energy:         1761.26020746 Eh           47926.32677 eV

Virial components:
Potential Energy   :        -2671.67592913 Eh          -72699.99803 eV
Kinetic Energy     :         1331.83442495 Eh           36241.05716 eV
Virial Ratio       :            2.00601207


DFT components:
N(Alpha)           :       66.999983431904 electrons
N(Beta)            :       66.999983431904 electrons
N(Total)           :      133.999966863808 electrons
E(XC)              :      -94.315236093870 Eh       
DFET-embed. en.    :        0.000000000000 Eh       

---------------
SCF CONVERGENCE
---------------

  Last Energy change         ...   -8.7479e-08  Tolerance :   1.0000e-06
  Last MAX-Density change    ...    2.4682e-05  Tolerance :   1.0000e-05
  Last RMS-Density change    ...    4.9135e-07  Tolerance :   1.0000e-06
  Last Orbital Gradient      ...    6.2171e-06  Tolerance :   5.0000e-05
  Last Orbital Rotation      ...    2.5441e-05  Tolerance :   5.0000e-05

             **** THE GBW FILE WAS UPDATED (config_1208.gbw) ****
             **** DENSITY FILE WAS UPDATED (config_1208.scfp) ****
             **** ENERGY FILE WAS UPDATED (config_1208.en.tmp) ****
             **** THE GBW FILE WAS UPDATED (config_1208.gbw) ****
             **** DENSITY FILE WAS UPDATED (config_1208.scfp) ****
----------------
ORBITAL ENERGIES
----------------

  NO   OCC          E(Eh)            E(eV) 
   0   2.0000     -88.967126     -2420.9186 
   1   2.0000     -88.966070     -2420.8899 
   2   2.0000     -10.331712      -281.1402 
   3   2.0000     -10.329501      -281.0800 
   4   2.0000     -10.314108      -280.6611 
   5   2.0000     -10.308937      -280.5204 
   6   2.0000     -10.302134      -280.3353 
   7   2.0000     -10.297363      -280.2055 
   8   2.0000     -10.294770      -280.1349 
   9   2.0000     -10.293022      -280.0874 
  10   2.0000     -10.291509      -280.0462 
  11   2.0000     -10.290173      -280.0098 
  12   2.0000     -10.288879      -279.9746 
  13   2.0000     -10.284584      -279.8578 
  14   2.0000     -10.278896      -279.7030 
  15   2.0000     -10.271398      -279.4989 
  16   2.0000      -8.081678      -219.9136 
  17   2.0000      -8.081597      -219.9114 
  18   2.0000      -6.040293      -164.3647 
  19   2.0000      -6.040224      -164.3629 
  20   2.0000      -6.036255      -164.2549 
  21   2.0000      -6.036149      -164.2520 
  22   2.0000      -6.032302      -164.1473 
  23   2.0000      -6.032043      -164.1402 
  24   2.0000      -1.012758       -27.5585 
  25   2.0000      -0.988407       -26.8959 
  26   2.0000      -0.916911       -24.9504 
  27   2.0000      -0.906474       -24.6664 
  28   2.0000      -0.875099       -23.8127 
  29   2.0000      -0.854302       -23.2467 
  30   2.0000      -0.849843       -23.1254 
  31   2.0000      -0.820364       -22.3232 
  32   2.0000      -0.782891       -21.3036 
  33   2.0000      -0.770505       -20.9665 
  34   2.0000      -0.710580       -19.3359 
  35   2.0000      -0.698179       -18.9984 
  36   2.0000      -0.694786       -18.9061 
  37   2.0000      -0.668763       -18.1980 
  38   2.0000      -0.639593       -17.4042 
  39   2.0000      -0.622449       -16.9377 
  40   2.0000      -0.599675       -16.3180 
  41   2.0000      -0.574887       -15.6435 
  42   2.0000      -0.571060       -15.5393 
  43   2.0000      -0.561389       -15.2762 
  44   2.0000      -0.531556       -14.4644 
  45   2.0000      -0.524122       -14.2621 
  46   2.0000      -0.519047       -14.1240 
  47   2.0000      -0.513108       -13.9624 
  48   2.0000      -0.506305       -13.7772 
  49   2.0000      -0.504140       -13.7184 
  50   2.0000      -0.497839       -13.5469 
  51   2.0000      -0.489885       -13.3304 
  52   2.0000      -0.468859       -12.7583 
  53   2.0000      -0.464701       -12.6452 
  54   2.0000      -0.461212       -12.5502 
  55   2.0000      -0.454981       -12.3807 
  56   2.0000      -0.446296       -12.1443 
  57   2.0000      -0.432764       -11.7761 
  58   2.0000      -0.430890       -11.7251 
  59   2.0000      -0.429645       -11.6912 
  60   2.0000      -0.416690       -11.3387 
  61   2.0000      -0.415476       -11.3057 
  62   2.0000      -0.410267       -11.1639 
  63   2.0000      -0.364484        -9.9181 
  64   2.0000      -0.334335        -9.0977 
  65   2.0000      -0.323932        -8.8146 
  66   2.0000      -0.280027        -7.6199 
  67   0.0000       0.016430         0.4471 
  68   0.0000       0.084827         2.3083 
  69   0.0000       0.094492         2.5713 
  70   0.0000       0.114512         3.1160 
  71   0.0000       0.132823         3.6143 
  72   0.0000       0.146399         3.9837 
  73   0.0000       0.151299         4.1171 
  74   0.0000       0.162891         4.4325 
  75   0.0000       0.167779         4.5655 
  76   0.0000       0.174065         4.7366 
  77   0.0000       0.182426         4.9641 
  78   0.0000       0.187832         5.1112 
  79   0.0000       0.192810         5.2466 
  80   0.0000       0.198005         5.3880 
  81   0.0000       0.202188         5.5018 
  82   0.0000       0.212170         5.7734 
  83   0.0000       0.215884         5.8745 
  84   0.0000       0.221933         6.0391 
  85   0.0000       0.226961         6.1759 
  86   0.0000       0.232881         6.3370 
  87   0.0000       0.240255         6.5377 
  88   0.0000       0.245204         6.6723 
  89   0.0000       0.250707         6.8221 
  90   0.0000       0.254746         6.9320 
  91   0.0000       0.275581         7.4989 
  92   0.0000       0.281455         7.6588 
  93   0.0000       0.296727         8.0744 
  94   0.0000       0.305392         8.3101 
  95   0.0000       0.319056         8.6820 
  96   0.0000       0.324818         8.8387 
  97   0.0000       0.332596         9.0504 
  98   0.0000       0.349211         9.5025 
  99   0.0000       0.371033        10.0963 
 100   0.0000       0.380582        10.3562 
 101   0.0000       0.411006        11.1841 
 102   0.0000       0.413608        11.2549 
 103   0.0000       0.429730        11.6935 
 104   0.0000       0.439078        11.9479 
 105   0.0000       0.447579        12.1792 
 106   0.0000       0.460454        12.5296 
 107   0.0000       0.480179        13.0663 
 108   0.0000       0.486131        13.2283 
 109   0.0000       0.497379        13.5344 
 110   0.0000       0.500907        13.6304 
 111   0.0000       0.515047        14.0151 
 112   0.0000       0.523525        14.2458 
 113   0.0000       0.525408        14.2971 
 114   0.0000       0.531286        14.4570 
 115   0.0000       0.539421        14.6784 
 116   0.0000       0.552753        15.0412 
 117   0.0000       0.566418        15.4130 
 118   0.0000       0.573126        15.5956 
 119   0.0000       0.585090        15.9211 
 120   0.0000       0.590426        16.0663 
 121   0.0000       0.594386        16.1741 
 122   0.0000       0.598886        16.2965 
 123   0.0000       0.602952        16.4072 
 124   0.0000       0.609231        16.5780 
 125   0.0000       0.620201        16.8765 
 126   0.0000       0.632872        17.2213 
 127   0.0000       0.637294        17.3417 
 128   0.0000       0.655116        17.8266 
 129   0.0000       0.668799        18.1989 
 130   0.0000       0.671178        18.2637 
 131   0.0000       0.685830        18.6624 
 132   0.0000       0.690316        18.7845 
 133   0.0000       0.701281        19.0828 
 134   0.0000       0.704458        19.1693 
 135   0.0000       0.716536        19.4979 
 136   0.0000       0.722894        19.6710 
 137   0.0000       0.731086        19.8939 
 138   0.0000       0.734519        19.9873 
 139   0.0000       0.745057        20.2740 
 140   0.0000       0.746626        20.3167 
 141   0.0000       0.754286        20.5252 
 142   0.0000       0.757831        20.6216 
 143   0.0000       0.761397        20.7187 
 144   0.0000       0.763477        20.7753 
 145   0.0000       0.770853        20.9760 
 146   0.0000       0.774459        21.0741 
 147   0.0000       0.778658        21.1884 
 148   0.0000       0.779926        21.2229 
 149   0.0000       0.782379        21.2896 
 150   0.0000       0.786456        21.4006 
 151   0.0000       0.789280        21.4774 
 152   0.0000       0.794196        21.6112 
 153   0.0000       0.798308        21.7231 
 154   0.0000       0.802329        21.8325 
 155   0.0000       0.807939        21.9851 
 156   0.0000       0.810930        22.0665 
 157   0.0000       0.814074        22.1521 
 158   0.0000       0.824626        22.4392 
 159   0.0000       0.831495        22.6261 
 160   0.0000       0.832703        22.6590 
 161   0.0000       0.839495        22.8438 
 162   0.0000       0.841275        22.8922 
 163   0.0000       0.849534        23.1170 
 164   0.0000       0.857750        23.3406 
 165   0.0000       0.868722        23.6391 
 166   0.0000       0.877807        23.8863 
 167   0.0000       0.880608        23.9626 
 168   0.0000       0.897097        24.4112 
 169   0.0000       0.904780        24.6203 
 170   0.0000       0.918631        24.9972 
 171   0.0000       0.925051        25.1719 
 172   0.0000       0.947598        25.7855 
 173   0.0000       0.951193        25.8833 
 174   0.0000       0.976150        26.5624 
 175   0.0000       0.992706        27.0129 
 176   0.0000       0.995365        27.0853 
 177   0.0000       1.002434        27.2776 
 178   0.0000       1.038682        28.2640 
 179   0.0000       1.049266        28.5520 
 180   0.0000       1.065746        29.0004 
 181   0.0000       1.093389        29.7526 
 182   0.0000       1.098811        29.9002 
 183   0.0000       1.106259        30.1028 
 184   0.0000       1.121257        30.5110 
 185   0.0000       1.135735        30.9049 
 186   0.0000       1.151417        31.3317 
 187   0.0000       1.174512        31.9601 
 188   0.0000       1.185536        32.2601 
 189   0.0000       1.191452        32.4210 
 190   0.0000       1.216653        33.1068 
 191   0.0000       1.221782        33.2464 
 192   0.0000       1.227785        33.4097 
 193   0.0000       1.262442        34.3528 
 194   0.0000       1.279749        34.8237 
 195   0.0000       1.299818        35.3698 
 196   0.0000       1.324469        36.0406 
 197   0.0000       1.341634        36.5077 
 198   0.0000       1.359625        36.9973 
 199   0.0000       1.379187        37.5296 
 200   0.0000       1.405564        38.2473 
 201   0.0000       1.408124        38.3170 
 202   0.0000       1.425816        38.7984 
 203   0.0000       1.432692        38.9855 
 204   0.0000       1.443426        39.2776 
 205   0.0000       1.466469        39.9047 
 206   0.0000       1.510229        41.0954 
 207   0.0000       1.518005        41.3070 
 208   0.0000       1.527891        41.5760 
 209   0.0000       1.552877        42.2559 
 210   0.0000       1.578583        42.9554 
 211   0.0000       1.591983        43.3201 
 212   0.0000       1.614688        43.9379 
 213   0.0000       1.642231        44.6874 
 214   0.0000       1.646231        44.7962 
 215   0.0000       1.647922        44.8422 
 216   0.0000       1.675199        45.5845 
 217   0.0000       1.682708        45.7888 
 218   0.0000       1.761721        47.9389 
 219   0.0000       1.782347        48.5001 
 220   0.0000       1.787823        48.6491 
 221   0.0000       1.803129        49.0656 
 222   0.0000       1.805652        49.1343 
 223   0.0000       1.810700        49.2717 
 224   0.0000       1.826229        49.6942 
 225   0.0000       1.829424        49.7812 
 226   0.0000       1.835445        49.9450 
 227   0.0000       1.848978        50.3132 
 228   0.0000       1.853867        50.4463 
 229   0.0000       1.862343        50.6769 
 230   0.0000       1.869930        50.8834 
 231   0.0000       1.874758        51.0148 
 232   0.0000       1.879992        51.1572 
 233   0.0000       1.880368        51.1674 
 234   0.0000       1.900882        51.7256 
 235   0.0000       1.908469        51.9321 
 236   0.0000       1.918198        52.1968 
 237   0.0000       1.922676        52.3187 
 238   0.0000       1.929786        52.5121 
 239   0.0000       1.934992        52.6538 
 240   0.0000       1.957834        53.2754 
 241   0.0000       1.964691        53.4620 
 242   0.0000       1.967224        53.5309 
 243   0.0000       1.972373        53.6710 
 244   0.0000       1.987911        54.0938 
 245   0.0000       1.995259        54.2938 
 246   0.0000       2.010476        54.7078 
 247   0.0000       2.018687        54.9313 
 248   0.0000       2.028844        55.2077 
 249   0.0000       2.030943        55.2648 
 250   0.0000       2.060361        56.0653 
 251   0.0000       2.071104        56.3576 
 252   0.0000       2.072991        56.4089 
 253   0.0000       2.083668        56.6995 
 254   0.0000       2.099349        57.1262 
 255   0.0000       2.114986        57.5517 
 256   0.0000       2.132812        58.0368 
 257   0.0000       2.137233        58.1571 
 258   0.0000       2.146395        58.4064 
 259   0.0000       2.173572        59.1459 
 260   0.0000       2.179690        59.3124 
 261   0.0000       2.187318        59.5199 
 262   0.0000       2.191286        59.6279 
 263   0.0000       2.210063        60.1389 
 264   0.0000       2.224264        60.5253 
 265   0.0000       2.231984        60.7354 
 266   0.0000       2.255591        61.3778 
 267   0.0000       2.269210        61.7483 
 268   0.0000       2.286274        62.2127 
 269   0.0000       2.300344        62.5955 
 270   0.0000       2.333946        63.5099 
 271   0.0000       2.363551        64.3155 
 272   0.0000       2.381985        64.8171 
 273   0.0000       2.413596        65.6773 
 274   0.0000       2.423377        65.9434 
 275   0.0000       2.437739        66.3343 
 276   0.0000       2.453410        66.7607 
 277   0.0000       2.471787        67.2607 
 278   0.0000       2.481221        67.5175 
 279   0.0000       2.489621        67.7460 
 280   0.0000       2.495019        67.8929 
 281   0.0000       2.506718        68.2113 
 282   0.0000       2.523967        68.6806 
 283   0.0000       2.533798        68.9481 
 284   0.0000       2.549652        69.3796 
 285   0.0000       2.554086        69.5002 
 286   0.0000       2.585234        70.3478 
 287   0.0000       2.588555        70.4382 
 288   0.0000       2.607751        70.9605 
 289   0.0000       2.620547        71.3087 
 290   0.0000       2.627659        71.5022 
 291   0.0000       2.666669        72.5638 
 292   0.0000       2.686189        73.0949 
 293   0.0000       2.696709        73.3812 
 294   0.0000       2.730393        74.2978 
 295   0.0000       2.734247        74.4027 
 296   0.0000       2.756103        74.9974 
 297   0.0000       2.775630        75.5287 
 298   0.0000       2.804376        76.3109 
 299   0.0000       2.809735        76.4568 
 300   0.0000       2.831420        77.0469 
 301   0.0000       2.903494        79.0081 
 302   0.0000       2.905262        79.0562 
 303   0.0000       2.947876        80.2158 
 304   0.0000       2.960918        80.5707 
 305   0.0000       3.011084        81.9358 
 306   0.0000       3.016963        82.0957 
 307   0.0000       3.025147        82.3184 
 308   0.0000       3.040614        82.7393 
 309   0.0000       3.052812        83.0712 
 310   0.0000       3.067966        83.4836 
 311   0.0000       3.073061        83.6222 
 312   0.0000       3.090398        84.0940 
 313   0.0000       3.116464        84.8033 
 314   0.0000       3.122890        84.9782 
 315   0.0000       3.173113        86.3448 
 316   0.0000       3.184106        86.6439 
 317   0.0000       3.185227        86.6744 
 318   0.0000       3.259803        88.7038 
 319   0.0000       3.305668        89.9518 
 320   0.0000       3.394173        92.3601 
 321   0.0000       3.466964        94.3409 

                    ********************************
                    * MULLIKEN POPULATION ANALYSIS *
                    ********************************

-----------------------
MULLIKEN ATOMIC CHARGES
-----------------------
   0 S :    0.097976
   1 C :   -0.091299
   2 C :   -0.062375
   3 C :   -0.023533
   4 C :   -0.100837
   5 H :    0.006160
   6 C :    0.084309
   7 H :    0.035220
   8 H :    0.006226
   9 C :   -0.115135
  10 H :    0.043383
  11 H :    0.020274
  12 C :   -0.039671
  13 H :    0.020077
  14 H :    0.023457
  15 H :    0.031778
  16 S :    0.080099
  17 C :   -0.057179
  18 C :   -0.003605
  19 C :   -0.076552
  20 C :   -0.072073
  21 H :    0.025366
  22 C :   -0.019982
  23 H :    0.020107
  24 H :    0.035438
  25 C :   -0.065524
  26 H :    0.033535
  27 H :    0.032509
  28 C :   -0.026851
  29 H :    0.021893
  30 H :    0.032381
  31 H :    0.034976
  32 H :    0.038818
  33 H :    0.030636
Sum of atomic charges:    0.0000000

--------------------------------
MULLIKEN REDUCED ORBITAL CHARGES
--------------------------------
  0 S s       :     5.838544  s :     5.838544
      pz      :     3.482024  p :     9.951492
      px      :     3.381727
      py      :     3.087741
      dz2     :     0.019584  d :     0.111989
      dxz     :     0.021340
      dyz     :     0.015717
      dx2y2   :     0.038235
      dxy     :     0.017113
  1 C s       :     3.161237  s :     3.161237
      pz      :     0.991126  p :     2.895367
      px      :     0.923389
      py      :     0.980852
      dz2     :     0.004437  d :     0.034696
      dxz     :     0.006424
      dyz     :     0.007209
      dx2y2   :     0.009695
      dxy     :     0.006930
  2 C s       :     3.073931  s :     3.073931
      pz      :     0.990095  p :     2.942177
      px      :     0.978692
      py      :     0.973390
      dz2     :     0.005757  d :     0.046267
      dxz     :     0.006165
      dyz     :     0.008843
      dx2y2   :     0.011857
      dxy     :     0.013645
  3 C s       :     3.200405  s :     3.200405
      pz      :     1.002725  p :     2.789820
      px      :     0.941598
      py      :     0.845497
      dz2     :     0.005199  d :     0.033307
      dxz     :     0.005614
      dyz     :     0.004967
      dx2y2   :     0.009775
      dxy     :     0.007753
  4 C s       :     3.041645  s :     3.041645
      pz      :     1.051347  p :     3.012467
      px      :     1.029383
      py      :     0.931738
      dz2     :     0.006738  d :     0.046725
      dxz     :     0.007570
      dyz     :     0.007807
      dx2y2   :     0.014601
      dxy     :     0.010009
  5 H s       :     0.969169  s :     0.969169
      pz      :     0.005341  p :     0.024671
      px      :     0.004470
      py      :     0.014859
  6 C s       :     2.945868  s :     2.945868
      pz      :     0.960620  p :     2.933665
      px      :     0.957029
      py      :     1.016015
      dz2     :     0.008628  d :     0.036158
      dxz     :     0.007009
      dyz     :     0.006650
      dx2y2   :     0.006013
      dxy     :     0.007857
  7 H s       :     0.941727  s :     0.941727
      pz      :     0.004649  p :     0.023053
      px      :     0.008820
      py      :     0.009584
  8 H s       :     0.969110  s :     0.969110
      pz      :     0.006885  p :     0.024664
      px      :     0.006084
      py      :     0.011695
  9 C s       :     3.078805  s :     3.078805
      pz      :     0.956155  p :     2.999709
      px      :     1.034346
      py      :     1.009208
      dz2     :     0.008214  d :     0.036621
      dxz     :     0.006320
      dyz     :     0.008873
      dx2y2   :     0.003914
      dxy     :     0.009301
 10 H s       :     0.935999  s :     0.935999
      pz      :     0.006619  p :     0.020618
      px      :     0.004420
      py      :     0.009579
 11 H s       :     0.954584  s :     0.954584
      pz      :     0.004567  p :     0.025142
      px      :     0.010400
      py      :     0.010175
 12 C s       :     2.988777  s :     2.988777
      pz      :     1.026103  p :     3.021199
      px      :     0.989811
      py      :     1.005285
      dz2     :     0.002999  d :     0.029696
      dxz     :     0.005712
      dyz     :     0.007824
      dx2y2   :     0.004177
      dxy     :     0.008984
 13 H s       :     0.957068  s :     0.957068
      pz      :     0.009126  p :     0.022854
      px      :     0.006789
      py      :     0.006939
 14 H s       :     0.951734  s :     0.951734
      pz      :     0.006206  p :     0.024809
      px      :     0.009158
      py      :     0.009445
 15 H s       :     0.942678  s :     0.942678
      pz      :     0.010329  p :     0.025544
      px      :     0.005415
      py      :     0.009800
 16 S s       :     5.843326  s :     5.843326
      pz      :     3.586555  p :     9.969899
      px      :     3.075603
      py      :     3.307742
      dz2     :     0.016674  d :     0.106676
      dxz     :     0.017604
      dyz     :     0.015269
      dx2y2   :     0.024062
      dxy     :     0.033067
 17 C s       :     3.140218  s :     3.140218
      pz      :     1.063176  p :     2.881426
      px      :     0.941398
      py      :     0.876852
      dz2     :     0.003426  d :     0.035535
      dxz     :     0.004023
      dyz     :     0.007978
      dx2y2   :     0.010626
      dxy     :     0.009482
 18 C s       :     3.150372  s :     3.150372
      pz      :     0.999515  p :     2.816138
      px      :     0.969728
      py      :     0.846895
      dz2     :     0.005099  d :     0.037095
      dxz     :     0.006004
      dyz     :     0.005530
      dx2y2   :     0.009850
      dxy     :     0.010612
 19 C s       :     3.083442  s :     3.083442
      pz      :     0.979574  p :     2.950220
      px      :     0.991106
      py      :     0.979539
      dz2     :     0.006053  d :     0.042891
      dxz     :     0.006363
      dyz     :     0.008784
      dx2y2   :     0.011890
      dxy     :     0.009800
 20 C s       :     3.035012  s :     3.035012
      pz      :     1.099143  p :     2.995183
      px      :     0.918494
      py      :     0.977547
      dz2     :     0.005404  d :     0.041877
      dxz     :     0.006052
      dyz     :     0.008402
      dx2y2   :     0.009188
      dxy     :     0.012831
 21 H s       :     0.951405  s :     0.951405
      pz      :     0.004381  p :     0.023229
      px      :     0.004935
      py      :     0.013912
 22 C s       :     3.013654  s :     3.013654
      pz      :     1.020861  p :     2.971454
      px      :     1.000826
      py      :     0.949766
      dz2     :     0.006388  d :     0.034875
      dxz     :     0.006024
      dyz     :     0.008444
      dx2y2   :     0.004354
      dxy     :     0.009664
 23 H s       :     0.957473  s :     0.957473
      pz      :     0.005574  p :     0.022420
      px      :     0.006873
      py      :     0.009972
 24 H s       :     0.942163  s :     0.942163
      pz      :     0.011575  p :     0.022399
      px      :     0.004659
      py      :     0.006165
 25 C s       :     3.069756  s :     3.069756
      pz      :     1.025737  p :     2.961084
      px      :     0.956960
      py      :     0.978386
      dz2     :     0.004815  d :     0.034684
      dxz     :     0.007478
      dyz     :     0.007924
      dx2y2   :     0.004145
      dxy     :     0.010323
 26 H s       :     0.942609  s :     0.942609
      pz      :     0.005189  p :     0.023856
      px      :     0.008065
      py      :     0.010602
 27 H s       :     0.945072  s :     0.945072
      pz      :     0.009816  p :     0.022419
      px      :     0.006052
      py      :     0.006551
 28 C s       :     2.987216  s :     2.987216
      pz      :     1.007171  p :     3.011164
      px      :     1.007875
      py      :     0.996117
      dz2     :     0.003483  d :     0.028471
      dxz     :     0.008839
      dyz     :     0.005987
      dx2y2   :     0.002525
      dxy     :     0.007637
 29 H s       :     0.952071  s :     0.952071
      pz      :     0.009095  p :     0.026037
      px      :     0.009796
      py      :     0.007145
 30 H s       :     0.944738  s :     0.944738
      pz      :     0.005189  p :     0.022881
      px      :     0.007924
      py      :     0.009769
 31 H s       :     0.941472  s :     0.941472
      pz      :     0.010849  p :     0.023553
      px      :     0.007266
      py      :     0.005438
 32 H s       :     0.936532  s :     0.936532
      pz      :     0.008286  p :     0.024650
      px      :     0.005360
      py      :     0.011004
 33 H s       :     0.943186  s :     0.943186
      pz      :     0.007534  p :     0.026177
      px      :     0.015094
      py      :     0.003550


                     *******************************
                     * LOEWDIN POPULATION ANALYSIS *
                     *******************************

----------------------
LOEWDIN ATOMIC CHARGES
----------------------
   0 S :    0.412184
   1 C :   -0.196240
   2 C :   -0.058379
   3 C :   -0.073550
   4 C :   -0.187720
   5 H :    0.034038
   6 C :   -0.030665
   7 H :    0.032602
   8 H :    0.028098
   9 C :   -0.047809
  10 H :    0.030509
  11 H :    0.022284
  12 C :   -0.065719
  13 H :    0.027175
  14 H :    0.019855
  15 H :    0.019144
  16 S :    0.398534
  17 C :   -0.157877
  18 C :   -0.069958
  19 C :   -0.057940
  20 C :   -0.205189
  21 H :    0.037397
  22 C :   -0.043829
  23 H :    0.028044
  24 H :    0.031647
  25 C :   -0.026828
  26 H :    0.015018
  27 H :    0.028534
  28 C :   -0.064649
  29 H :    0.020855
  30 H :    0.028635
  31 H :    0.024483
  32 H :    0.031494
  33 H :    0.015825

-------------------------------
LOEWDIN REDUCED ORBITAL CHARGES
-------------------------------
  0 S s       :     5.487132  s :     5.487132
      pz      :     3.458331  p :     9.961797
      px      :     3.376838
      py      :     3.126628
      dz2     :     0.023687  d :     0.138887
      dxz     :     0.026444
      dyz     :     0.018279
      dx2y2   :     0.050099
      dxy     :     0.020377
  1 C s       :     2.918782  s :     2.918782
      pz      :     1.066114  p :     3.194644
      px      :     1.035676
      py      :     1.092853
      dz2     :     0.010054  d :     0.082814
      dxz     :     0.014040
      dyz     :     0.015725
      dx2y2   :     0.024424
      dxy     :     0.018571
  2 C s       :     2.853884  s :     2.853884
      pz      :     0.984106  p :     3.089448
      px      :     1.035166
      py      :     1.070175
      dz2     :     0.011846  d :     0.115047
      dxz     :     0.013856
      dyz     :     0.021131
      dx2y2   :     0.031749
      dxy     :     0.036466
  3 C s       :     2.868996  s :     2.868996
      pz      :     1.038706  p :     3.116921
      px      :     1.038851
      py      :     1.039364
      dz2     :     0.011295  d :     0.087633
      dxz     :     0.014300
      dyz     :     0.012102
      dx2y2   :     0.026018
      dxy     :     0.023918
  4 C s       :     2.900067  s :     2.900067
      pz      :     1.061006  p :     3.175855
      px      :     1.093844
      py      :     1.021005
      dz2     :     0.014115  d :     0.111798
      dxz     :     0.017697
      dyz     :     0.017470
      dx2y2   :     0.036628
      dxy     :     0.025888
  5 H s       :     0.895573  s :     0.895573
      pz      :     0.015829  p :     0.070389
      px      :     0.013486
      py      :     0.041074
  6 C s       :     2.815482  s :     2.815482
      pz      :     1.024902  p :     3.122419
      px      :     1.023131
      py      :     1.074386
      dz2     :     0.024064  d :     0.092764
      dxz     :     0.016213
      dyz     :     0.015263
      dx2y2   :     0.016004
      dxy     :     0.021220
  7 H s       :     0.901081  s :     0.901081
      pz      :     0.014446  p :     0.066317
      px      :     0.026201
      py      :     0.025670
  8 H s       :     0.900140  s :     0.900140
      pz      :     0.021501  p :     0.071762
      px      :     0.017280
      py      :     0.032981
  9 C s       :     2.840867  s :     2.840867
      pz      :     1.006142  p :     3.119791
      px      :     1.063988
      py      :     1.049660
      dz2     :     0.021368  d :     0.087151
      dxz     :     0.013385
      dyz     :     0.020600
      dx2y2   :     0.009052
      dxy     :     0.022745
 10 H s       :     0.909324  s :     0.909324
      pz      :     0.021150  p :     0.060168
      px      :     0.013310
      py      :     0.025708
 11 H s       :     0.904075  s :     0.904075
      pz      :     0.015340  p :     0.073642
      px      :     0.028961
      py      :     0.029340
 12 C s       :     2.824825  s :     2.824825
      pz      :     1.071890  p :     3.165762
      px      :     1.032718
      py      :     1.061155
      dz2     :     0.007087  d :     0.075132
      dxz     :     0.015322
      dyz     :     0.020367
      dx2y2   :     0.008659
      dxy     :     0.023696
 13 H s       :     0.911196  s :     0.911196
      pz      :     0.024399  p :     0.061629
      px      :     0.019626
      py      :     0.017604
 14 H s       :     0.909627  s :     0.909627
      pz      :     0.016907  p :     0.070518
      px      :     0.027347
      py      :     0.026265
 15 H s       :     0.906644  s :     0.906644
      pz      :     0.029691  p :     0.074212
      px      :     0.016726
      py      :     0.027795
 16 S s       :     5.506937  s :     5.506937
      pz      :     3.545373  p :     9.964065
      px      :     3.087377
      py      :     3.331315
      dz2     :     0.020001  d :     0.130465
      dxz     :     0.022526
      dyz     :     0.016996
      dx2y2   :     0.028960
      dxy     :     0.041982
 17 C s       :     2.912840  s :     2.912840
      pz      :     1.077543  p :     3.160227
      px      :     1.064547
      py      :     1.018137
      dz2     :     0.006449  d :     0.084809
      dxz     :     0.008542
      dyz     :     0.017616
      dx2y2   :     0.027253
      dxy     :     0.024950
 18 C s       :     2.859359  s :     2.859359
      pz      :     1.008428  p :     3.113046
      px      :     1.047791
      py      :     1.056827
      dz2     :     0.011700  d :     0.097552
      dxz     :     0.015237
      dyz     :     0.011978
      dx2y2   :     0.028448
      dxy     :     0.030190
 19 C s       :     2.858249  s :     2.858249
      pz      :     1.008618  p :     3.092435
      px      :     1.038624
      py      :     1.045193
      dz2     :     0.012760  d :     0.107256
      dxz     :     0.014575
      dyz     :     0.020969
      dx2y2   :     0.033183
      dxy     :     0.025770
 20 C s       :     2.913432  s :     2.913432
      pz      :     1.092325  p :     3.191401
      px      :     1.031416
      py      :     1.067660
      dz2     :     0.011342  d :     0.100355
      dxz     :     0.013123
      dyz     :     0.019171
      dx2y2   :     0.024621
      dxy     :     0.032099
 21 H s       :     0.895304  s :     0.895304
      pz      :     0.013559  p :     0.067299
      px      :     0.015101
      py      :     0.038639
 22 C s       :     2.839919  s :     2.839919
      pz      :     1.042141  p :     3.117414
      px      :     1.042260
      py      :     1.033013
      dz2     :     0.015017  d :     0.086496
      dxz     :     0.015468
      dyz     :     0.021045
      dx2y2   :     0.009881
      dxy     :     0.025085
 23 H s       :     0.905304  s :     0.905304
      pz      :     0.016351  p :     0.066652
      px      :     0.021802
      py      :     0.028499
 24 H s       :     0.903674  s :     0.903674
      pz      :     0.033311  p :     0.064679
      px      :     0.014837
      py      :     0.016532
 25 C s       :     2.839722  s :     2.839722
      pz      :     1.051066  p :     3.103541
      px      :     1.018332
      py      :     1.034143
      dz2     :     0.010271  d :     0.083566
      dxz     :     0.018571
      dyz     :     0.019897
      dx2y2   :     0.008403
      dxy     :     0.026423
 26 H s       :     0.911119  s :     0.911119
      pz      :     0.016927  p :     0.073864
      px      :     0.025376
      py      :     0.031561
 27 H s       :     0.904047  s :     0.904047
      pz      :     0.029765  p :     0.067419
      px      :     0.018318
      py      :     0.019336
 28 C s       :     2.829180  s :     2.829180
      pz      :     1.061248  p :     3.164029
      px      :     1.059351
      py      :     1.043430
      dz2     :     0.008096  d :     0.071440
      dxz     :     0.021933
      dyz     :     0.015876
      dx2y2   :     0.005024
      dxy     :     0.020512
 29 H s       :     0.904512  s :     0.904512
      pz      :     0.025724  p :     0.074633
      px      :     0.027942
      py      :     0.020967
 30 H s       :     0.907782  s :     0.907782
      pz      :     0.013658  p :     0.063583
      px      :     0.021707
      py      :     0.028217
 31 H s       :     0.908869  s :     0.908869
      pz      :     0.029880  p :     0.066647
      px      :     0.020580
      py      :     0.016187
 32 H s       :     0.892067  s :     0.892067
      pz      :     0.026019  p :     0.076439
      px      :     0.019004
      py      :     0.031416
 33 H s       :     0.900575  s :     0.900575
      pz      :     0.024580  p :     0.083600
      px      :     0.044667
      py      :     0.014353


                      *****************************
                      * MAYER POPULATION ANALYSIS *
                      *****************************

  NA   - Mulliken gross atomic population
  ZA   - Total nuclear charge
  QA   - Mulliken gross atomic charge
  VA   - Mayer's total valence
  BVA  - Mayer's bonded valence
  FA   - Mayer's free valence

  ATOM       NA         ZA         QA         VA         BVA        FA
  0 S     15.9020    16.0000     0.0980     2.4639     2.4639     0.0000
  1 C      6.0913     6.0000    -0.0913     3.8404     3.8404    -0.0000
  2 C      6.0624     6.0000    -0.0624     4.0259     4.0259    -0.0000
  3 C      6.0235     6.0000    -0.0235     3.9245     3.9245    -0.0000
  4 C      6.1008     6.0000    -0.1008     3.9444     3.9444     0.0000
  5 H      0.9938     1.0000     0.0062     1.0147     1.0147    -0.0000
  6 C      5.9157     6.0000     0.0843     3.9530     3.9530     0.0000
  7 H      0.9648     1.0000     0.0352     0.9836     0.9836     0.0000
  8 H      0.9938     1.0000     0.0062     0.9955     0.9955     0.0000
  9 C      6.1151     6.0000    -0.1151     4.0849     4.0849     0.0000
 10 H      0.9566     1.0000     0.0434     0.9789     0.9789     0.0000
 11 H      0.9797     1.0000     0.0203     0.9779     0.9779     0.0000
 12 C      6.0397     6.0000    -0.0397     3.9883     3.9883     0.0000
 13 H      0.9799     1.0000     0.0201     0.9943     0.9943     0.0000
 14 H      0.9765     1.0000     0.0235     0.9857     0.9857     0.0000
 15 H      0.9682     1.0000     0.0318     0.9880     0.9880     0.0000
 16 S     15.9199    16.0000     0.0801     2.4784     2.4784    -0.0000
 17 C      6.0572     6.0000    -0.0572     3.8383     3.8383    -0.0000
 18 C      6.0036     6.0000    -0.0036     3.9551     3.9551    -0.0000
 19 C      6.0766     6.0000    -0.0766     4.0372     4.0372     0.0000
 20 C      6.0721     6.0000    -0.0721     3.8831     3.8831     0.0000
 21 H      0.9746     1.0000     0.0254     0.9947     0.9947    -0.0000
 22 C      6.0200     6.0000    -0.0200     3.9770     3.9770    -0.0000
 23 H      0.9799     1.0000     0.0201     0.9888     0.9888    -0.0000
 24 H      0.9646     1.0000     0.0354     0.9908     0.9908     0.0000
 25 C      6.0655     6.0000    -0.0655     4.0807     4.0807    -0.0000
 26 H      0.9665     1.0000     0.0335     0.9856     0.9856    -0.0000
 27 H      0.9675     1.0000     0.0325     0.9782     0.9782    -0.0000
 28 C      6.0269     6.0000    -0.0269     3.9950     3.9950    -0.0000
 29 H      0.9781     1.0000     0.0219     0.9871     0.9871     0.0000
 30 H      0.9676     1.0000     0.0324     0.9906     0.9906    -0.0000
 31 H      0.9650     1.0000     0.0350     0.9914     0.9914    -0.0000
 32 H      0.9612     1.0000     0.0388     1.0077     1.0077    -0.0000
 33 H      0.9694     1.0000     0.0306     1.0035     1.0035    -0.0000

  Mayer bond orders larger than 0.100000
B(  0-S ,  1-C ) :   1.1133 B(  0-S ,  4-C ) :   1.1542 B(  1-C ,  2-C ) :   1.6436 
B(  1-C , 32-H ) :   0.9662 B(  2-C ,  3-C ) :   1.2171 B(  2-C ,  6-C ) :   1.0269 
B(  3-C ,  4-C ) :   1.5682 B(  3-C ,  5-H ) :   0.9872 B(  4-C , 20-C ) :   1.0857 
B(  6-C ,  7-H ) :   0.9491 B(  6-C ,  8-H ) :   0.9361 B(  6-C ,  9-C ) :   1.0564 
B(  9-C , 10-H ) :   0.9590 B(  9-C , 11-H ) :   0.9677 B(  9-C , 12-C ) :   1.0685 
B( 12-C , 13-H ) :   0.9721 B( 12-C , 14-H ) :   0.9734 B( 12-C , 15-H ) :   0.9847 
B( 16-S , 17-C ) :   1.1536 B( 16-S , 20-C ) :   1.1322 B( 17-C , 18-C ) :   1.5886 
B( 17-C , 33-H ) :   0.9762 B( 18-C , 19-C ) :   1.2910 B( 18-C , 21-H ) :   0.9848 
B( 19-C , 20-C ) :   1.5318 B( 19-C , 22-C ) :   1.0485 B( 22-C , 23-H ) :   0.9418 
B( 22-C , 24-H ) :   0.9314 B( 22-C , 25-C ) :   1.0520 B( 25-C , 26-H ) :   0.9573 
B( 25-C , 27-H ) :   0.9523 B( 25-C , 28-C ) :   1.0864 B( 28-C , 29-H ) :   0.9726 
B( 28-C , 30-H ) :   0.9718 B( 28-C , 31-H ) :   0.9758 

-------
TIMINGS
-------

Total SCF time: 0 days 0 hours 0 min 35 sec 

Total time                  ....      35.266 sec
Sum of individual times     ....      33.927 sec  ( 96.2%)

Fock matrix formation       ....      31.753 sec  ( 90.0%)
  XC integration            ....       2.034 sec  (  6.4% of F)
    Basis function eval.    ....       0.251 sec  ( 12.3% of XC)
    Density eval.           ....       0.187 sec  (  9.2% of XC)
    XC-Functional eval.     ....       0.207 sec  ( 10.2% of XC)
    XC-Potential eval.      ....       0.228 sec  ( 11.2% of XC)
Diagonalization             ....       0.179 sec  (  0.5%)
Density matrix formation    ....       0.064 sec  (  0.2%)
Population analysis         ....       0.050 sec  (  0.1%)
Initial guess               ....       0.214 sec  (  0.6%)
Orbital Transformation      ....       0.000 sec  (  0.0%)
Orbital Orthonormalization  ....       0.000 sec  (  0.0%)
DIIS solution               ....       0.229 sec  (  0.6%)
SOSCF solution              ....       0.173 sec  (  0.5%)
Grid generation             ....       1.265 sec  (  3.6%)


-------------------------------------------------------------------------------
                          DFT DISPERSION CORRECTION                            
                                                                               
                              DFTD3 V3.1  Rev 1                                
                              USING zero damping                               
-------------------------------------------------------------------------------
The omegaB97X-D3 functional is recognized. Fit by Chai et al.
Active option DFTDOPT                   ...         3   

molecular C6(AA) [au] = 14151.035707 


            DFT-D V3
 parameters
 s6 scaling factor         :     1.0000 
 rs6 scaling factor        :     1.2810 
 s8 scaling factor         :     1.0000 
 rs8 scaling factor        :     1.0940 
 Damping factor alpha6     :    14.0000 
 Damping factor alpha8     :    16.0000 
 ad hoc parameters k1-k3   :    16.0000     1.3333    -4.0000 

 Edisp/kcal,au: -8.721338814790  -0.013898336591 
 E6   /kcal   :  -4.016246263 
 E8   /kcal   :  -4.705092552 
 % E8         :  53.949200369 

-------------------------   ----------------
Dispersion correction           -0.013898337
-------------------------   ----------------


-------------------------   --------------------
FINAL SINGLE POINT ENERGY     -1339.855402514034
-------------------------   --------------------


                            ***************************************
                            *     ORCA property calculations      *
                            ***************************************

                                    ---------------------
                                    Active property flags
                                    ---------------------
   (+) Dipole Moment


------------------------------------------------------------------------------
                       ORCA ELECTRIC PROPERTIES CALCULATION
------------------------------------------------------------------------------

Dipole Moment Calculation                       ... on
Quadrupole Moment Calculation                   ... off
Polarizability Calculation                      ... off
GBWName                                         ... config_1208.gbw
Electron density file                           ... config_1208.scfp
The origin for moment calculation is the CENTER OF MASS  = (-0.175964, 45.162492 70.958316)

-------------
DIPOLE MOMENT
-------------
                                X             Y             Z
Electronic contribution:     23.33620      20.12104      14.43868
Nuclear contribution   :    -23.63530     -20.78510     -14.72876
                        -----------------------------------------
Total Dipole Moment    :     -0.29910      -0.66407      -0.29009
                        -----------------------------------------
Magnitude (a.u.)       :      0.78396
Magnitude (Debye)      :      1.99267



--------------------
Rotational spectrum 
--------------------
 
Rotational constants in cm-1:     0.017690     0.009371     0.006355 
Rotational constants in MHz :   530.338851   280.923604   190.505794 

 Dipole components along the rotational axes: 
x,y,z [a.u.] :     0.226809    -0.735952    -0.146715 
x,y,z [Debye]:     0.576504    -1.870642    -0.372921 

 

Timings for individual modules:

Sum of individual times         ...       36.822 sec (=   0.614 min)
GTO integral calculation        ...        1.181 sec (=   0.020 min)   3.2 %
SCF iterations                  ...       35.641 sec (=   0.594 min)  96.8 %
                             ****ORCA TERMINATED NORMALLY****
TOTAL RUN TIME: 0 days 0 hours 0 minutes 37 seconds 560 msec
