
                                 *****************
                                 * O   R   C   A *
                                 *****************

           --- An Ab Initio, DFT and Semiempirical electronic structure package ---

                  #######################################################
                  #                        -***-                        #
                  #          Department of theory and spectroscopy      #
                  #               Directorship: Frank Neese             #
                  #        Max Planck Institute fuer Kohlenforschung    #
                  #                Kaiser Wilhelm Platz 1               #
                  #                 D-45470 Muelheim/Ruhr               #
                  #                      Germany                        #
                  #                                                     #
                  #                  All rights reserved                #
                  #                        -***-                        #
                  #######################################################


                         Program Version 4.2.1 -  RELEASE  -


 With contributions from (in alphabetic order):
   Daniel Aravena         : Magnetic Suceptibility
   Michael Atanasov       : Ab Initio Ligand Field Theory (pilot matlab implementation)
   Alexander A. Auer      : GIAO ZORA, VPT2
   Ute Becker             : Parallelization
   Giovanni Bistoni       : ED, misc. LED, open-shell LED, HFLD
   Martin Brehm           : Molecular dynamics
   Dmytro Bykov           : SCF Hessian
   Vijay G. Chilkuri      : MRCI spin determinant printing, contributions to CSF-ICE
   Dipayan Datta          : RHF DLPNO-CCSD density
   Achintya Kumar Dutta   : EOM-CC, STEOM-CC
   Dmitry Ganyushin       : Spin-Orbit,Spin-Spin,Magnetic field MRCI
   Miquel Garcia          : C-PCM Hessian, Gaussian charge scheme
   Yang Guo               : DLPNO-NEVPT2, CIM, IAO-localization
   Andreas Hansen         : Spin unrestricted coupled pair/coupled cluster methods
   Benjamin Helmich-Paris : CASSCF linear response (MC-RPA)
   Lee Huntington         : MR-EOM, pCC
   Robert Izsak           : Overlap fitted RIJCOSX, COSX-SCS-MP3, EOM
   Christian Kollmar      : KDIIS, OOCD, Brueckner-CCSD(T), CCSD density
   Simone Kossmann        : Meta GGA functionals, TD-DFT gradient, OOMP2, MP2 Hessian
   Martin Krupicka        : AUTO-CI
   Lucas Lang             : DCDCAS
   Dagmar Lenk            : GEPOL surface, SMD
   Dimitrios Liakos       : Extrapolation schemes; Compound Job, initial MDCI parallelization
   Dimitrios Manganas     : Further ROCIS development; embedding schemes
   Dimitrios Pantazis     : SARC Basis sets
   Taras Petrenko         : DFT Hessian,TD-DFT gradient, ASA, ECA, R-Raman, ABS, FL, XAS/XES, NRVS
   Peter Pinski           : DLPNO-MP2, DLPNO-MP2 Gradient
   Christoph Reimann      : Effective Core Potentials
   Marius Retegan         : Local ZFS, SOC
   Christoph Riplinger    : Optimizer, TS searches, QM/MM, DLPNO-CCSD(T), (RO)-DLPNO pert. Triples
   Tobias Risthaus        : Range-separated hybrids, TD-DFT gradient, RPA, STAB
   Michael Roemelt        : Original ROCIS implementation
   Masaaki Saitow         : Open-shell DLPNO-CCSD energy and density
   Barbara Sandhoefer     : DKH picture change effects
   Avijit Sen             : IP-ROCIS
   Kantharuban Sivalingam : CASSCF convergence, NEVPT2, FIC-MRCI
   Bernardo de Souza      : ESD, SOC TD-DFT
   Georgi Stoychev        : AutoAux, RI-MP2 NMR
   Willem Van den Heuvel  : Paramagnetic NMR
   Boris Wezisla          : Elementary symmetry handling
   Frank Wennmohs         : Technical directorship


 We gratefully acknowledge several colleagues who have allowed us to
 interface, adapt or use parts of their codes:
   Stefan Grimme, W. Hujo, H. Kruse,             : VdW corrections, initial TS optimization,
                  C. Bannwarth                     DFT functionals, gCP, sTDA/sTD-DF
   Ed Valeev, F. Pavosevic, A. Kumar             : LibInt (2-el integral package), F12 methods
   Garnet Chan, S. Sharma, J. Yang, R. Olivares  : DMRG
   Ulf Ekstrom                                   : XCFun DFT Library
   Mihaly Kallay                                 : mrcc  (arbitrary order and MRCC methods)
   Andreas Klamt, Michael Diedenhofen            : otool_cosmo (COSMO solvation model)
   Jiri Pittner, Ondrej Demel                    : Mk-CCSD
   Frank Weinhold                                : gennbo (NPA and NBO analysis)
   Christopher J. Cramer and Donald G. Truhlar   : smd solvation model
   Lars Goerigk                                  : TD-DFT with DH, B97 family of functionals
   V. Asgeirsson, H. Jonsson                     : NEB implementation
   FAccTs GmbH                                   : IRC, NEB, NEB-TS, Multilevel, MM, QM/MM, CI optimization
   S Lehtola, MJT Oliveira, MAL Marques          : LibXC Library


 Your calculation uses the libint2 library for the computation of 2-el integrals
 For citations please refer to: http://libint.valeyev.net

 Your ORCA version has been built with support for libXC version: 4.2.3
 For citations please refer to: https://tddft.org/programs/libxc/

 This ORCA versions uses:
   CBLAS   interface :  Fast vector & matrix operations
   LAPACKE interface :  Fast linear algebra routines
   SCALAPACK package :  Parallel linear algebra routines


Your calculation utilizes the atom-pairwise dispersion correction
with the zero-damping scheme (D30)
Cite in your paper:
S.Grimme, J.Antony, S.Ehrlich and H.Krieg, J.Chem.Phys., 132, (2010), 154104 
   

XCFun DFT library Copyright 2009-2010 Ulf Ekstrom and contributors.
See http://admol.org/xcfun for more information. This is free soft-
ware; see the source code for copying conditions. There is ABSOLUTELY
NO WARRANTY; not even for MERCHANTABILITY or FITNESS FOR A PARTICULAR
PURPOSE. For details see the documentation. Scientific users of this 
library should cite U. Ekstrom, L. Visscher, R. Bast, A. J. Thorvald-
sen and K. Ruud; J.Chem.Theor.Comp. 2010, DOI: 10.1021/ct100117s
XCFun Version 0.99 
----- Orbital basis set information -----
Your calculation utilizes the basis: def2-SVP
   F. Weigend and R. Ahlrichs, Phys. Chem. Chem. Phys. 7, 3297 (2005).

================================================================================
                                        WARNINGS
                       Please study these warnings very carefully!
================================================================================


INFO   : the flag for use of LIBINT has been found!

================================================================================
                                       INPUT FILE
================================================================================
NAME = config_4386.inp
|  1> ! wB97X-D3 SP def2-SVP
|  2> %pal
|  3> nprocs 16
|  4> end
|  5> 
|  6> * xyz 0 1
|  7> S 	 8.76284 	 -10.2242 	 68.2884 	 
|  8> C 	 10.2037 	 -9.32776 	 67.8724 	 
|  9> C 	 10.1483 	 -7.96776 	 68.1613 	 
| 10> C 	 8.8764 	 -7.60944 	 68.7591 	 
| 11> C 	 8.04808 	 -8.72351 	 68.9005 	 
| 12> H 	 8.57782 	 -6.60662 	 69.0956 	 
| 13> C 	 11.078 	 -6.9695 	 67.669 	 
| 14> H 	 11.9646 	 -7.40091 	 67.3509 	 
| 15> H 	 11.1684 	 -6.35619 	 68.5477 	 
| 16> C 	 10.6516 	 -5.95919 	 66.5926 	 
| 17> H 	 9.6953 	 -5.47661 	 66.7369 	 
| 18> H 	 11.4054 	 -5.19374 	 66.6774 	 
| 19> C 	 10.6557 	 -6.62514 	 65.193 	 
| 20> H 	 9.89166 	 -7.3977 	 65.106 	 
| 21> H 	 10.4265 	 -5.79355 	 64.4944 	 
| 22> H 	 11.5392 	 -7.17317 	 64.9572 	 
| 23> S 	 5.48697 	 -9.14698 	 68.3278 	 
| 24> C 	 4.21391 	 -8.67842 	 69.399 	 
| 25> C 	 4.75102 	 -7.92263 	 70.4089 	 
| 26> C 	 6.18399 	 -7.85563 	 70.461 	 
| 27> C 	 6.7196 	 -8.61 	 69.461 	 
| 28> H 	 3.96843 	 -7.56031 	 71.1167 	 
| 29> C 	 6.91621 	 -7.08058 	 71.5402 	 
| 30> H 	 6.4211 	 -6.09706 	 71.6138 	 
| 31> H 	 7.98957 	 -6.82422 	 71.2783 	 
| 32> C 	 6.96311 	 -7.6338 	 72.9864 	 
| 33> H 	 5.94628 	 -7.53341 	 73.4644 	 
| 34> H 	 7.59981 	 -7.04811 	 73.6146 	 
| 35> C 	 7.18893 	 -9.16069 	 73.0007 	 
| 36> H 	 8.16497 	 -9.34781 	 72.6129 	 
| 37> H 	 6.38673 	 -9.83854 	 72.58 	 
| 38> H 	 7.30992 	 -9.48407 	 74.01 	 
| 39> H 	 11.0701 	 -9.75262 	 67.3918 	 
| 40> H 	 3.22382 	 -9.12405 	 69.3722 	 
| 41> *
| 42> 
| 43>                          ****END OF INPUT****
================================================================================

                       ****************************
                       * Single Point Calculation *
                       ****************************

---------------------------------
CARTESIAN COORDINATES (ANGSTROEM)
---------------------------------
  S      8.762840  -10.224200   68.288400
  C     10.203700   -9.327760   67.872400
  C     10.148300   -7.967760   68.161300
  C      8.876400   -7.609440   68.759100
  C      8.048080   -8.723510   68.900500
  H      8.577820   -6.606620   69.095600
  C     11.078000   -6.969500   67.669000
  H     11.964600   -7.400910   67.350900
  H     11.168400   -6.356190   68.547700
  C     10.651600   -5.959190   66.592600
  H      9.695300   -5.476610   66.736900
  H     11.405400   -5.193740   66.677400
  C     10.655700   -6.625140   65.193000
  H      9.891660   -7.397700   65.106000
  H     10.426500   -5.793550   64.494400
  H     11.539200   -7.173170   64.957200
  S      5.486970   -9.146980   68.327800
  C      4.213910   -8.678420   69.399000
  C      4.751020   -7.922630   70.408900
  C      6.183990   -7.855630   70.461000
  C      6.719600   -8.610000   69.461000
  H      3.968430   -7.560310   71.116700
  C      6.916210   -7.080580   71.540200
  H      6.421100   -6.097060   71.613800
  H      7.989570   -6.824220   71.278300
  C      6.963110   -7.633800   72.986400
  H      5.946280   -7.533410   73.464400
  H      7.599810   -7.048110   73.614600
  C      7.188930   -9.160690   73.000700
  H      8.164970   -9.347810   72.612900
  H      6.386730   -9.838540   72.580000
  H      7.309920   -9.484070   74.010000
  H     11.070100   -9.752620   67.391800
  H      3.223820   -9.124050   69.372200

----------------------------
CARTESIAN COORDINATES (A.U.)
----------------------------
  NO LB      ZA    FRAG     MASS         X           Y           Z
   0 S    16.0000    0    32.060   16.559368  -19.320938  129.046374
   1 C     6.0000    0    12.011   19.282199  -17.626912  128.260248
   2 C     6.0000    0    12.011   19.177508  -15.056884  128.806190
   3 C     6.0000    0    12.011   16.773965  -14.379758  129.935868
   4 C     6.0000    0    12.011   15.208667  -16.485045  130.203075
   5 H     1.0000    0     1.008   16.209731  -12.484702  130.571761
   6 C     6.0000    0    12.011   20.934386  -13.170446  127.875878
   7 H     1.0000    0     1.008   22.609817  -13.985693  127.274756
   8 H     1.0000    0     1.008   21.105217  -12.011458  129.536380
   9 C     6.0000    0    12.011   20.128607  -11.261237  125.841777
  10 H     1.0000    0     1.008   18.321462  -10.349293  126.114464
  11 H     1.0000    0     1.008   21.553082   -9.814746  126.002025
  12 C     6.0000    0    12.011   20.136355  -12.519700  123.196916
  13 H     1.0000    0     1.008   18.692528  -13.979627  123.032510
  14 H     1.0000    0     1.008   19.703230  -10.948223  121.876753
  15 H     1.0000    0     1.008   21.805928  -13.555327  122.751318
  16 S    16.0000    0    32.060   10.368871  -17.285287  129.120829
  17 C     6.0000    0    12.011    7.963136  -16.399837  131.145104
  18 C     6.0000    0    12.011    8.978127  -14.971601  133.053538
  19 C     6.0000    0    12.011   11.686048  -14.844989  133.151993
  20 C     6.0000    0    12.011   12.698204  -16.270542  131.262267
  21 H     1.0000    0     1.008    7.499246  -14.286915  134.391087
  22 C     6.0000    0    12.011   13.069743  -13.380357  135.191386
  23 H     1.0000    0     1.008   12.134120  -11.521774  135.330469
  24 H     1.0000    0     1.008   15.098099  -12.895907  134.696466
  25 C     6.0000    0    12.011   13.158371  -14.425791  137.924308
  26 H     1.0000    0     1.008   11.236841  -14.236082  138.827597
  27 H     1.0000    0     1.008   14.361560  -13.318998  139.111433
  28 C     6.0000    0    12.011   13.585109  -17.311195  137.951331
  29 H     1.0000    0     1.008   15.429557  -17.664801  137.218495
  30 H     1.0000    0     1.008   12.069171  -18.592146  137.156323
  31 H     1.0000    0     1.008   13.813747  -17.922295  139.858631
  32 H     1.0000    0     1.008   20.919457  -18.429781  127.352046
  33 H     1.0000    0     1.008    6.092137  -17.241956  131.094459

--------------------------------
INTERNAL COORDINATES (ANGSTROEM)
--------------------------------
 S      0   0   0     0.000000000000     0.00000000     0.00000000
 C      1   0   0     1.747208691943     0.00000000     0.00000000
 C      2   1   0     1.391449736785   114.78442757     0.00000000
 C      3   2   1     1.450340536702   111.22122759     0.21566469
 C      4   3   2     1.395442563239   111.41257399     0.62295420
 H      4   3   2     1.099104280221   126.14585864   179.02963161
 C      3   2   1     1.450249774211   125.22402566   193.60084041
 H      7   3   2     1.036031736049   111.48128951   340.38097470
 H      7   3   2     1.075376681029    99.73479842   218.94357774
 C      7   3   2     1.536613229183   120.82891932   107.64701184
 H     10   7   3     1.080840245550   116.45902890    46.05193094
 H     10   7   3     1.077645202513   102.57922984   162.43561132
 C     10   7   3     1.549963345534   110.44551953   281.94565235
 H     13  10   7     1.090034437621   112.00790427    66.49432837
 H     13  10   7     1.110007445065   104.23364245   184.94663656
 H     13  10   7     1.066072591759   115.01092039   311.32490752
 S      5   4   3     2.658307085910   132.62796871   226.73129967
 C     17   5   4     1.728496363086   122.20073589   277.13456470
 C     18  17   5     1.370986391690   108.50595243     8.74625619
 C     19  18  17     1.435481254110   116.33056096   351.63482052
 C     20  19  18     1.362333354580   109.87578101   359.01888935
 H     19  18  17     1.115662910784   111.81126640   178.06986156
 C     20  19  18     1.517076554067   122.10492908   181.28282199
 H     23  20  19     1.103568059750   106.63136336   313.23397730
 H     23  20  19     1.134201811496   114.07748129   199.27036194
 C     23  20  19     1.549111493212   119.75388388    72.89340542
 H     26  23  20     1.128053811216   109.66479188   288.18708544
 H     26  23  20     1.069137458936   111.77333862   173.59661535
 C     26  23  20     1.543564781439   111.49013287    40.96678523
 H     29  26  23     1.066797457815   107.69755473    66.01106205
 H     29  26  23     1.131368177253   119.04469083   294.12636173
 H     29  26  23     1.066723813599   108.97990769   174.51229142
 H      2   1   3     1.078021956919   124.52164908   182.45626597
 H     18  17   5     1.086085882884   123.01757929   201.84285168

---------------------------
INTERNAL COORDINATES (A.U.)
---------------------------
 S      0   0   0     0.000000000000     0.00000000     0.00000000
 C      1   0   0     3.301745926578     0.00000000     0.00000000
 C      2   1   0     2.629458931641   114.78442757     0.00000000
 C      3   2   1     2.740746415290   111.22122759     0.21566469
 C      4   3   2     2.637004280139   111.41257399     0.62295420
 H      4   3   2     2.077006082238   126.14585864   179.02963161
 C      3   2   1     2.740574899041   125.22402566   193.60084041
 H      7   3   2     1.957816247183   111.48128951   340.38097470
 H      7   3   2     2.032167417949    99.73479842   218.94357774
 C      7   3   2     2.903778176916   120.82891932   107.64701184
 H     10   7   3     2.042492058609   116.45902890    46.05193094
 H     10   7   3     2.036454302284   102.57922984   162.43561132
 C     10   7   3     2.929006240676   110.44551953   281.94565235
 H     13  10   7     2.059866563647   112.00790427    66.49432837
 H     13  10   7     2.097610077787   104.23364245   184.94663656
 H     13  10   7     2.014585237304   115.01092039   311.32490752
 S      5   4   3     5.023472372232   132.62796871   226.73129967
 C     17   5   4     3.266384749711   122.20073589   277.13456470
 C     18  17   5     2.590788813628   108.50595243     8.74625619
 C     19  18  17     2.712666440645   116.33056096   351.63482052
 C     20  19  18     2.574436943262   109.87578101   359.01888935
 H     19  18  17     2.108297359156   111.81126640   178.06986156
 C     20  19  18     2.866859211380   122.10492908   181.28282199
 H     23  20  19     2.085441403070   106.63136336   313.23397730
 H     23  20  19     2.143330804324   114.07748129   199.27036194
 C     23  20  19     2.927396473080   119.75388388    72.89340542
 H     26  23  20     2.131712767525   109.66479188   288.18708544
 H     26  23  20     2.020376996905   111.77333862   173.59661535
 C     26  23  20     2.916914706886   111.49013287    40.96678523
 H     29  26  23     2.015955035633   107.69755473    66.01106205
 H     29  26  23     2.137976011641   119.04469083   294.12636173
 H     29  26  23     2.015815868235   108.97990769   174.51229142
 H      2   1   3     2.037166264931   124.52164908   182.45626597
 H     18  17   5     2.052404876569   123.01757929   201.84285168

---------------------
BASIS SET INFORMATION
---------------------
There are 3 groups of distinct atoms

 Group   1 Type S   : 10s7p1d contracted to 4s3p1d pattern {5311/511/1}
 Group   2 Type C   : 7s4p1d contracted to 3s2p1d pattern {511/31/1}
 Group   3 Type H   : 4s1p contracted to 2s1p pattern {31/1}

Atom   0S    basis set group =>   1
Atom   1C    basis set group =>   2
Atom   2C    basis set group =>   2
Atom   3C    basis set group =>   2
Atom   4C    basis set group =>   2
Atom   5H    basis set group =>   3
Atom   6C    basis set group =>   2
Atom   7H    basis set group =>   3
Atom   8H    basis set group =>   3
Atom   9C    basis set group =>   2
Atom  10H    basis set group =>   3
Atom  11H    basis set group =>   3
Atom  12C    basis set group =>   2
Atom  13H    basis set group =>   3
Atom  14H    basis set group =>   3
Atom  15H    basis set group =>   3
Atom  16S    basis set group =>   1
Atom  17C    basis set group =>   2
Atom  18C    basis set group =>   2
Atom  19C    basis set group =>   2
Atom  20C    basis set group =>   2
Atom  21H    basis set group =>   3
Atom  22C    basis set group =>   2
Atom  23H    basis set group =>   3
Atom  24H    basis set group =>   3
Atom  25C    basis set group =>   2
Atom  26H    basis set group =>   3
Atom  27H    basis set group =>   3
Atom  28C    basis set group =>   2
Atom  29H    basis set group =>   3
Atom  30H    basis set group =>   3
Atom  31H    basis set group =>   3
Atom  32H    basis set group =>   3
Atom  33H    basis set group =>   3


           ************************************************************
           *        Program running with 16 parallel MPI-processes    *
           *              working on a common directory               *
           ************************************************************
------------------------------------------------------------------------------
                           ORCA GTO INTEGRAL CALCULATION
------------------------------------------------------------------------------

                         BASIS SET STATISTICS AND STARTUP INFO

 # of primitive gaussian shells          ...  294
 # of primitive gaussian functions       ...  534
 # of contracted shells                  ...  154
 # of contracted basis functions         ...  322
 Highest angular momentum                ...    2
 Maximum contraction depth               ...    5
 Integral package used                   ... LIBINT
 Integral threshhold            Thresh   ...  1.000e-10
 Primitive cut-off              TCut     ...  1.000e-11


------------------------------ INTEGRAL EVALUATION ----------------------------


 * One electron integrals 
 Pre-screening matrix                    ... done
 Shell pair data                         ... done (   0.003 sec)



           ************************************************************
           *        Program running with 16 parallel MPI-processes    *
           *              working on a common directory               *
           ************************************************************
-------------------------------------------------------------------------------
                                 ORCA SCF
-------------------------------------------------------------------------------

------------
SCF SETTINGS
------------
Hamiltonian:
 Density Functional     Method          .... DFT(GTOs)
 Exchange Functional    Exchange        .... WB97X-D3
 Correlation Functional Correlation     .... WB97X-D3
 Gradients option       PostSCFGGA      .... off
 Hybrid DFT is turned on
   Fraction HF Exchange ScalHFX         ....  0.195728
   Scaling of DF-GGA-X  ScalDFX         ....  0.000000
   Scaling of DF-GGA-C  ScalDFC         ....  1.000000
   Scaling of DF-LDA-C  ScalLDAC        ....  1.000000
   Perturbative correction              ....  0.000000
   Density functional embedding theory  .... OFF
 Long-range corrected/Screened/Range-Separated Hybrid DFT is turned on
   Amount of maximum screened exact exchange              ....  0.804272
   Range separation parameter mu (erf(mu*r12)/r12)        ....  0.250000


General Settings:
 Integral files         IntName         .... config_4386
 Hartree-Fock type      HFTyp           .... RHF
 Total Charge           Charge          ....    0
 Multiplicity           Mult            ....    1
 Number of Electrons    NEL             ....  134
 Basis Dimension        Dim             ....  322
 Nuclear Repulsion      ENuc            ....   1298.8757041407 Eh

Convergence Acceleration:
 DIIS                   CNVDIIS         .... on
   Start iteration      DIISMaxIt       ....    12
   Startup error        DIISStart       ....  0.200000
   # of expansion vecs  DIISMaxEq       ....     5
   Bias factor          DIISBfac        ....   1.050
   Max. coefficient     DIISMaxC        ....  10.000
 Newton-Raphson         CNVNR           .... off
 SOSCF                  CNVSOSCF        .... on
   Start iteration      SOSCFMaxIt      ....   150
   Startup grad/error   SOSCFStart      ....  0.003300
 Level Shifting         CNVShift        .... on
   Level shift para.    LevelShift      ....    0.2500
   Turn off err/grad.   ShiftErr        ....    0.0010
 Zerner damping         CNVZerner       .... off
 Static damping         CNVDamp         .... on
   Fraction old density DampFac         ....    0.7000
   Max. Damping (<1)    DampMax         ....    0.9800
   Min. Damping (>=0)   DampMin         ....    0.0000
   Turn off err/grad.   DampErr         ....    0.1000
 Fernandez-Rico         CNVRico         .... off

SCF Procedure:
 Maximum # iterations   MaxIter         ....   125
 SCF integral mode      SCFMode         .... Direct
   Integral package                     .... LIBINT
 Reset frequency        DirectResetFreq ....    20
 Integral Threshold     Thresh          ....  1.000e-10 Eh
 Primitive CutOff       TCut            ....  1.000e-11 Eh

Convergence Tolerance:
 Convergence Check Mode ConvCheckMode   .... Total+1el-Energy
 Convergence forced     ConvForced      .... 0
 Energy Change          TolE            ....  1.000e-06 Eh
 1-El. energy change                    ....  1.000e-03 Eh
 Orbital Gradient       TolG            ....  5.000e-05
 Orbital Rotation angle TolX            ....  5.000e-05
 DIIS Error             TolErr          ....  1.000e-06


Diagonalization of the overlap matrix:
Smallest eigenvalue                        ... 5.345e-04
Time for diagonalization                   ...    0.020 sec
Threshold for overlap eigenvalues          ... 1.000e-08
Number of eigenvalues below threshold      ... 0
Time for construction of square roots      ...    0.030 sec
Total time needed                          ...    0.052 sec

-------------------
DFT GRID GENERATION
-------------------

General Integration Accuracy     IntAcc      ...  4.340
Radial Grid Type                 RadialGrid  ... Gauss-Chebyshev
Angular Grid (max. acc.)         AngularGrid ... Lebedev-110
Angular grid pruning method      GridPruning ... 3 (G Style)
Weight generation scheme         WeightScheme... Becke
Basis function cutoff            BFCut       ...    1.0000e-10
Integration weight cutoff        WCut        ...    1.0000e-14
Grids for H and He will be reduced by one unit

# of grid points (after initial pruning)     ...  41088 (   0.0 sec)
# of grid points (after weights+screening)   ...  36886 (   0.0 sec)
nearest neighbour list constructed           ...    0.0 sec
Grid point re-assignment to atoms done       ...    0.0 sec
Grid point division into batches done        ...    0.0 sec
Reduced shell lists constructed in    0.1 sec

Total number of grid points                  ...    36886
Total number of batches                      ...      593
Average number of points per batch           ...       62
Average number of grid points per atom       ...     1085
Average number of shells per batch           ...    78.26 (50.82%)
Average number of basis functions per batch  ...   153.69 (47.73%)
Average number of large shells per batch     ...    50.18 (64.12%)
Average number of large basis fcns per batch ...   102.13 (66.45%)
Maximum spatial batch extension              ...  14.96, 12.78, 15.31 au
Average spatial batch extension              ...   0.19,  0.19,  0.21 au

Time for grid setup =    0.190 sec

------------------------------
INITIAL GUESS: MODEL POTENTIAL
------------------------------
Loading Hartree-Fock densities                     ... done
Calculating cut-offs                               ... done
Setting up the integral package                    ... done
Initializing the effective Hamiltonian             ... done
Starting the Coulomb interaction                   ... done (   0.0 sec)
Reading the grid                                   ... done
Mapping shells                                     ... done
Starting the XC term evaluation                    ... done (   0.1 sec)
  promolecular density results
     # of electrons  =    133.992453951
     EX              =   -126.734572947
     EC              =     -4.622139474
     EX+EC           =   -131.356712421
Transforming the Hamiltonian                       ... done (   0.0 sec)
Diagonalizing the Hamiltonian                      ... done (   0.0 sec)
Back transforming the eigenvectors                 ... done (   0.0 sec)
Now organizing SCF variables                       ... done
                      ------------------
                      INITIAL GUESS DONE (   0.4 sec)
                      ------------------
--------------
SCF ITERATIONS
--------------
ITER       Energy         Delta-E        Max-DP      RMS-DP      [F,P]     Damp
               ***  Starting incremental Fock matrix formation  ***
  0  -1339.4051915974   0.000000000000 0.06589597  0.00160990  0.1623384 0.7000
  1  -1339.5961438359  -0.190952238478 0.04397050  0.00116912  0.0972914 0.7000
                               ***Turning on DIIS***
  2  -1339.6880458720  -0.091902036138 0.08659213  0.00219013  0.0502154 0.0000
  3  -1339.8269527749  -0.138906902876 0.04450537  0.00099345  0.0381034 0.0000
  4  -1339.8570968212  -0.030144046345 0.00717707  0.00019807  0.0073025 0.0000
                      *** Initiating the SOSCF procedure ***
                           *** Shutting down DIIS ***
                      *** Re-Reading the Fockian *** 
                      *** Removing any level shift *** 
ITER      Energy       Delta-E        Grad      Rot      Max-DP    RMS-DP
  5  -1339.85802984  -0.0009330139  0.001845  0.001845  0.003563  0.000102
               *** Restarting incremental Fock matrix formation ***
  6  -1339.85822928  -0.0001994411  0.001659  0.004711  0.002622  0.000067
  7  -1339.85830177  -0.0000724971  0.000840  0.005503  0.003332  0.000068
  8  -1339.85832176  -0.0000199823  0.000361  0.000583  0.000777  0.000020
  9  -1339.85832617  -0.0000044129  0.000125  0.000343  0.000281  0.000008
 10  -1339.85832644  -0.0000002719  0.000074  0.000170  0.000139  0.000003
                  ***Gradient check signals convergence***
              ***Rediagonalizing the Fockian in SOSCF/NRSCF***

               *****************************************************
               *                     SUCCESS                       *
               *           SCF CONVERGED AFTER  11 CYCLES          *
               *****************************************************

Setting up the final grid:

General Integration Accuracy     IntAcc      ...  4.670
Radial Grid Type                 RadialGrid  ... Gauss-Chebyshev
Angular Grid (max. acc.)         AngularGrid ... Lebedev-302
Angular grid pruning method      GridPruning ... 3 (G Style)
Weight generation scheme         WeightScheme... Becke
Basis function cutoff            BFCut       ...    1.0000e-10
Integration weight cutoff        WCut        ...    1.0000e-14
Grids for H and He will be reduced by one unit

# of grid points (after initial pruning)     ... 161752 (   0.0 sec)
# of grid points (after weights+screening)   ... 142350 (   0.2 sec)
nearest neighbour list constructed           ...    0.0 sec
Grid point re-assignment to atoms done       ...    0.0 sec
Grid point division into batches done        ...    0.5 sec
Reduced shell lists constructed in    0.6 sec

Total number of grid points                  ...   142350
Total number of batches                      ...     2241
Average number of points per batch           ...       63
Average number of grid points per atom       ...     4187
Average number of shells per batch           ...    72.86 (47.31%)
Average number of basis functions per batch  ...   142.54 (44.27%)
Average number of large shells per batch     ...    44.85 (61.56%)
Average number of large basis fcns per batch ...    90.96 (63.82%)
Maximum spatial batch extension              ...  14.25, 14.68, 14.82 au
Average spatial batch extension              ...   0.13,  0.13,  0.14 au

Final grid set up in    1.1 sec
Final integration                            ... done (   0.5 sec)
Change in XC energy                          ...     0.007919074
Integrated number of electrons               ...   134.000089232
Previous integrated no of electrons          ...   134.000205852

----------------
TOTAL SCF ENERGY
----------------

Total Energy       :        -1339.85040762 Eh          -36459.18314 eV

Components:
Nuclear Repulsion  :         1298.87570414 Eh           35344.20477 eV
Electronic Energy  :        -2638.72611176 Eh          -71803.38791 eV
One Electron Energy:        -4414.53217151 Eh         -120125.52745 eV
Two Electron Energy:         1775.80605975 Eh           48322.13954 eV

Virial components:
Potential Energy   :        -2671.48842575 Eh          -72694.89580 eV
Kinetic Energy     :         1331.63801813 Eh           36235.71266 eV
Virial Ratio       :            2.00616713


DFT components:
N(Alpha)           :       67.000044615955 electrons
N(Beta)            :       67.000044615955 electrons
N(Total)           :      134.000089231911 electrons
E(XC)              :      -94.278151783055 Eh       
DFET-embed. en.    :        0.000000000000 Eh       

---------------
SCF CONVERGENCE
---------------

  Last Energy change         ...   -2.5402e-07  Tolerance :   1.0000e-06
  Last MAX-Density change    ...    3.5608e-05  Tolerance :   1.0000e-05
  Last RMS-Density change    ...    9.1596e-07  Tolerance :   1.0000e-06
  Last Orbital Gradient      ...    9.9378e-06  Tolerance :   5.0000e-05
  Last Orbital Rotation      ...    4.6058e-05  Tolerance :   5.0000e-05

             **** THE GBW FILE WAS UPDATED (config_4386.gbw) ****
             **** DENSITY FILE WAS UPDATED (config_4386.scfp) ****
             **** ENERGY FILE WAS UPDATED (config_4386.en.tmp) ****
             **** THE GBW FILE WAS UPDATED (config_4386.gbw) ****
             **** DENSITY FILE WAS UPDATED (config_4386.scfp) ****
----------------
ORBITAL ENERGIES
----------------

  NO   OCC          E(Eh)            E(eV) 
   0   2.0000     -88.970670     -2421.0150 
   1   2.0000     -88.955719     -2420.6082 
   2   2.0000     -10.329108      -281.0693 
   3   2.0000     -10.322172      -280.8806 
   4   2.0000     -10.311845      -280.5996 
   5   2.0000     -10.311604      -280.5930 
   6   2.0000     -10.305585      -280.4292 
   7   2.0000     -10.297944      -280.2213 
   8   2.0000     -10.297688      -280.2143 
   9   2.0000     -10.297395      -280.2064 
  10   2.0000     -10.295200      -280.1466 
  11   2.0000     -10.288609      -279.9673 
  12   2.0000     -10.286728      -279.9161 
  13   2.0000     -10.279810      -279.7279 
  14   2.0000     -10.275061      -279.5986 
  15   2.0000     -10.269917      -279.4586 
  16   2.0000      -8.084754      -219.9973 
  17   2.0000      -8.071560      -219.6383 
  18   2.0000      -6.043303      -164.4466 
  19   2.0000      -6.039480      -164.3426 
  20   2.0000      -6.035397      -164.2315 
  21   2.0000      -6.030125      -164.0881 
  22   2.0000      -6.025903      -163.9732 
  23   2.0000      -6.022179      -163.8718 
  24   2.0000      -1.007947       -27.4276 
  25   2.0000      -0.982969       -26.7480 
  26   2.0000      -0.918811       -25.0021 
  27   2.0000      -0.903999       -24.5991 
  28   2.0000      -0.869709       -23.6660 
  29   2.0000      -0.851584       -23.1728 
  30   2.0000      -0.842665       -22.9301 
  31   2.0000      -0.810713       -22.0606 
  32   2.0000      -0.782702       -21.2984 
  33   2.0000      -0.775598       -21.1051 
  34   2.0000      -0.712211       -19.3802 
  35   2.0000      -0.699689       -19.0395 
  36   2.0000      -0.690817       -18.7981 
  37   2.0000      -0.657660       -17.8959 
  38   2.0000      -0.636436       -17.3183 
  39   2.0000      -0.623688       -16.9714 
  40   2.0000      -0.593701       -16.1554 
  41   2.0000      -0.563596       -15.3362 
  42   2.0000      -0.552924       -15.0458 
  43   2.0000      -0.545811       -14.8523 
  44   2.0000      -0.542922       -14.7737 
  45   2.0000      -0.539185       -14.6720 
  46   2.0000      -0.525509       -14.2998 
  47   2.0000      -0.513680       -13.9779 
  48   2.0000      -0.501370       -13.6430 
  49   2.0000      -0.491727       -13.3806 
  50   2.0000      -0.488390       -13.2898 
  51   2.0000      -0.480944       -13.0872 
  52   2.0000      -0.469520       -12.7763 
  53   2.0000      -0.460394       -12.5280 
  54   2.0000      -0.459111       -12.4931 
  55   2.0000      -0.451339       -12.2816 
  56   2.0000      -0.445511       -12.1230 
  57   2.0000      -0.438799       -11.9403 
  58   2.0000      -0.426168       -11.5966 
  59   2.0000      -0.424221       -11.5436 
  60   2.0000      -0.418466       -11.3870 
  61   2.0000      -0.416722       -11.3396 
  62   2.0000      -0.402522       -10.9532 
  63   2.0000      -0.344465        -9.3734 
  64   2.0000      -0.327581        -8.9139 
  65   2.0000      -0.324585        -8.8324 
  66   2.0000      -0.292397        -7.9565 
  67   0.0000       0.027645         0.7523 
  68   0.0000       0.075532         2.0553 
  69   0.0000       0.107014         2.9120 
  70   0.0000       0.116000         3.1565 
  71   0.0000       0.128562         3.4983 
  72   0.0000       0.147158         4.0044 
  73   0.0000       0.147686         4.0187 
  74   0.0000       0.148788         4.0487 
  75   0.0000       0.165357         4.4996 
  76   0.0000       0.170554         4.6410 
  77   0.0000       0.181125         4.9287 
  78   0.0000       0.188797         5.1374 
  79   0.0000       0.195129         5.3097 
  80   0.0000       0.198338         5.3971 
  81   0.0000       0.213965         5.8223 
  82   0.0000       0.216417         5.8890 
  83   0.0000       0.217709         5.9242 
  84   0.0000       0.225335         6.1317 
  85   0.0000       0.231127         6.2893 
  86   0.0000       0.234165         6.3719 
  87   0.0000       0.239475         6.5164 
  88   0.0000       0.244470         6.6524 
  89   0.0000       0.249136         6.7793 
  90   0.0000       0.257537         7.0079 
  91   0.0000       0.261965         7.1284 
  92   0.0000       0.273076         7.4308 
  93   0.0000       0.296853         8.0778 
  94   0.0000       0.299945         8.1619 
  95   0.0000       0.317900         8.6505 
  96   0.0000       0.327355         8.9078 
  97   0.0000       0.335492         9.1292 
  98   0.0000       0.356955         9.7132 
  99   0.0000       0.361898         9.8477 
 100   0.0000       0.386880        10.5276 
 101   0.0000       0.393929        10.7194 
 102   0.0000       0.412004        11.2112 
 103   0.0000       0.429518        11.6878 
 104   0.0000       0.433101        11.7853 
 105   0.0000       0.452113        12.3026 
 106   0.0000       0.458569        12.4783 
 107   0.0000       0.477393        12.9905 
 108   0.0000       0.483236        13.1495 
 109   0.0000       0.493694        13.4341 
 110   0.0000       0.499485        13.5917 
 111   0.0000       0.505655        13.7596 
 112   0.0000       0.516299        14.0492 
 113   0.0000       0.525519        14.3001 
 114   0.0000       0.530841        14.4449 
 115   0.0000       0.538683        14.6583 
 116   0.0000       0.548810        14.9339 
 117   0.0000       0.553019        15.0484 
 118   0.0000       0.567450        15.4411 
 119   0.0000       0.575068        15.6484 
 120   0.0000       0.582798        15.8587 
 121   0.0000       0.591674        16.1003 
 122   0.0000       0.604089        16.4381 
 123   0.0000       0.616215        16.7681 
 124   0.0000       0.626015        17.0347 
 125   0.0000       0.630882        17.1672 
 126   0.0000       0.638604        17.3773 
 127   0.0000       0.651123        17.7180 
 128   0.0000       0.658643        17.9226 
 129   0.0000       0.668399        18.1881 
 130   0.0000       0.676602        18.4113 
 131   0.0000       0.692237        18.8367 
 132   0.0000       0.696316        18.9477 
 133   0.0000       0.699900        19.0453 
 134   0.0000       0.706429        19.2229 
 135   0.0000       0.717637        19.5279 
 136   0.0000       0.721131        19.6230 
 137   0.0000       0.725185        19.7333 
 138   0.0000       0.738391        20.0926 
 139   0.0000       0.740487        20.1497 
 140   0.0000       0.741722        20.1833 
 141   0.0000       0.751545        20.4506 
 142   0.0000       0.756850        20.5949 
 143   0.0000       0.761232        20.7142 
 144   0.0000       0.763106        20.7652 
 145   0.0000       0.771961        21.0061 
 146   0.0000       0.773621        21.0513 
 147   0.0000       0.775043        21.0900 
 148   0.0000       0.780966        21.2512 
 149   0.0000       0.783873        21.3303 
 150   0.0000       0.787240        21.4219 
 151   0.0000       0.791140        21.5280 
 152   0.0000       0.795437        21.6449 
 153   0.0000       0.800740        21.7892 
 154   0.0000       0.802986        21.8503 
 155   0.0000       0.807834        21.9823 
 156   0.0000       0.814359        22.1598 
 157   0.0000       0.820463        22.3259 
 158   0.0000       0.825038        22.4504 
 159   0.0000       0.827183        22.5088 
 160   0.0000       0.831932        22.6380 
 161   0.0000       0.834225        22.7004 
 162   0.0000       0.842812        22.9341 
 163   0.0000       0.852393        23.1948 
 164   0.0000       0.853214        23.2171 
 165   0.0000       0.865037        23.5389 
 166   0.0000       0.873672        23.7738 
 167   0.0000       0.880736        23.9660 
 168   0.0000       0.886480        24.1224 
 169   0.0000       0.891218        24.2513 
 170   0.0000       0.904473        24.6119 
 171   0.0000       0.908130        24.7115 
 172   0.0000       0.923123        25.1195 
 173   0.0000       0.942154        25.6373 
 174   0.0000       0.961042        26.1513 
 175   0.0000       0.983678        26.7673 
 176   0.0000       0.990886        26.9634 
 177   0.0000       0.996364        27.1125 
 178   0.0000       1.004292        27.3282 
 179   0.0000       1.020568        27.7711 
 180   0.0000       1.046053        28.4645 
 181   0.0000       1.068769        29.0827 
 182   0.0000       1.084865        29.5207 
 183   0.0000       1.103896        30.0385 
 184   0.0000       1.110023        30.2053 
 185   0.0000       1.145508        31.1709 
 186   0.0000       1.148103        31.2415 
 187   0.0000       1.165318        31.7099 
 188   0.0000       1.173968        31.9453 
 189   0.0000       1.208587        32.8873 
 190   0.0000       1.222381        33.2627 
 191   0.0000       1.238853        33.7109 
 192   0.0000       1.242613        33.8132 
 193   0.0000       1.254981        34.1498 
 194   0.0000       1.267515        34.4908 
 195   0.0000       1.308983        35.6192 
 196   0.0000       1.322199        35.9789 
 197   0.0000       1.333812        36.2949 
 198   0.0000       1.357904        36.9505 
 199   0.0000       1.367111        37.2010 
 200   0.0000       1.392903        37.9028 
 201   0.0000       1.402948        38.1762 
 202   0.0000       1.404211        38.2105 
 203   0.0000       1.436909        39.1003 
 204   0.0000       1.461458        39.7683 
 205   0.0000       1.467158        39.9234 
 206   0.0000       1.494627        40.6709 
 207   0.0000       1.506545        40.9952 
 208   0.0000       1.520642        41.3788 
 209   0.0000       1.539289        41.8862 
 210   0.0000       1.568914        42.6923 
 211   0.0000       1.597075        43.4586 
 212   0.0000       1.627546        44.2878 
 213   0.0000       1.638899        44.5967 
 214   0.0000       1.654262        45.0148 
 215   0.0000       1.665535        45.3215 
 216   0.0000       1.695283        46.1310 
 217   0.0000       1.728350        47.0308 
 218   0.0000       1.751072        47.6491 
 219   0.0000       1.764746        48.0212 
 220   0.0000       1.790101        48.7111 
 221   0.0000       1.797514        48.9128 
 222   0.0000       1.807092        49.1735 
 223   0.0000       1.814053        49.3629 
 224   0.0000       1.824567        49.6490 
 225   0.0000       1.835807        49.9549 
 226   0.0000       1.844991        50.2048 
 227   0.0000       1.848268        50.2939 
 228   0.0000       1.860065        50.6149 
 229   0.0000       1.867532        50.8181 
 230   0.0000       1.871976        50.9391 
 231   0.0000       1.878880        51.1269 
 232   0.0000       1.885995        51.3205 
 233   0.0000       1.894493        51.5518 
 234   0.0000       1.902778        51.7772 
 235   0.0000       1.909716        51.9660 
 236   0.0000       1.917782        52.1855 
 237   0.0000       1.927066        52.4381 
 238   0.0000       1.936008        52.6815 
 239   0.0000       1.944302        52.9072 
 240   0.0000       1.951948        53.1152 
 241   0.0000       1.959721        53.3267 
 242   0.0000       1.961128        53.3650 
 243   0.0000       1.968565        53.5674 
 244   0.0000       1.980016        53.8790 
 245   0.0000       1.989121        54.1267 
 246   0.0000       1.993358        54.2420 
 247   0.0000       2.000367        54.4327 
 248   0.0000       2.018919        54.9376 
 249   0.0000       2.029641        55.2293 
 250   0.0000       2.043581        55.6087 
 251   0.0000       2.061295        56.0907 
 252   0.0000       2.065608        56.2080 
 253   0.0000       2.076573        56.5064 
 254   0.0000       2.085885        56.7598 
 255   0.0000       2.088084        56.8196 
 256   0.0000       2.097682        57.0808 
 257   0.0000       2.144936        58.3667 
 258   0.0000       2.154218        58.6192 
 259   0.0000       2.157071        58.6969 
 260   0.0000       2.161786        58.8252 
 261   0.0000       2.191763        59.6409 
 262   0.0000       2.194777        59.7229 
 263   0.0000       2.213588        60.2348 
 264   0.0000       2.227668        60.6179 
 265   0.0000       2.246138        61.1205 
 266   0.0000       2.277028        61.9611 
 267   0.0000       2.291934        62.3667 
 268   0.0000       2.298870        62.5554 
 269   0.0000       2.306248        62.7562 
 270   0.0000       2.328738        63.3682 
 271   0.0000       2.351984        64.0007 
 272   0.0000       2.370631        64.5081 
 273   0.0000       2.382679        64.8360 
 274   0.0000       2.396573        65.2141 
 275   0.0000       2.410842        65.6023 
 276   0.0000       2.430610        66.1403 
 277   0.0000       2.448241        66.6200 
 278   0.0000       2.453538        66.7642 
 279   0.0000       2.474050        67.3223 
 280   0.0000       2.492534        67.8253 
 281   0.0000       2.521234        68.6063 
 282   0.0000       2.525679        68.7272 
 283   0.0000       2.532441        68.9112 
 284   0.0000       2.536829        69.0306 
 285   0.0000       2.564003        69.7701 
 286   0.0000       2.578046        70.1522 
 287   0.0000       2.585023        70.3421 
 288   0.0000       2.605396        70.8964 
 289   0.0000       2.620487        71.3071 
 290   0.0000       2.636299        71.7373 
 291   0.0000       2.667598        72.5890 
 292   0.0000       2.680243        72.9331 
 293   0.0000       2.722226        74.0755 
 294   0.0000       2.727384        74.2159 
 295   0.0000       2.742345        74.6230 
 296   0.0000       2.748102        74.7797 
 297   0.0000       2.782581        75.7179 
 298   0.0000       2.792594        75.9903 
 299   0.0000       2.799151        76.1688 
 300   0.0000       2.826634        76.9166 
 301   0.0000       2.833427        77.1015 
 302   0.0000       2.915332        79.3302 
 303   0.0000       2.925830        79.6159 
 304   0.0000       2.945310        80.1459 
 305   0.0000       2.984347        81.2082 
 306   0.0000       3.019373        82.1613 
 307   0.0000       3.033858        82.5555 
 308   0.0000       3.044836        82.8542 
 309   0.0000       3.065123        83.4062 
 310   0.0000       3.084160        83.9243 
 311   0.0000       3.088105        84.0316 
 312   0.0000       3.101976        84.4090 
 313   0.0000       3.129375        85.1546 
 314   0.0000       3.139533        85.4310 
 315   0.0000       3.146521        85.6212 
 316   0.0000       3.197242        87.0014 
 317   0.0000       3.209312        87.3298 
 318   0.0000       3.249152        88.4139 
 319   0.0000       3.291333        89.5617 
 320   0.0000       3.360172        91.4349 
 321   0.0000       3.442905        93.6862 

                    ********************************
                    * MULLIKEN POPULATION ANALYSIS *
                    ********************************

-----------------------
MULLIKEN ATOMIC CHARGES
-----------------------
   0 S :    0.127560
   1 C :   -0.117909
   2 C :   -0.077762
   3 C :    0.007350
   4 C :   -0.149793
   5 H :    0.029544
   6 C :    0.091926
   7 H :   -0.004041
   8 H :    0.018227
   9 C :   -0.051959
  10 H :    0.028061
  11 H :    0.026061
  12 C :   -0.055983
  13 H :    0.037390
  14 H :    0.043019
  15 H :    0.018603
  16 S :    0.078599
  17 C :   -0.102518
  18 C :   -0.067815
  19 C :   -0.010490
  20 C :   -0.144799
  21 H :    0.033515
  22 C :    0.035356
  23 H :    0.031713
  24 H :    0.034214
  25 C :   -0.070946
  26 H :    0.023583
  27 H :    0.029025
  28 C :   -0.042941
  29 H :    0.021741
  30 H :    0.061397
  31 H :    0.013498
  32 H :    0.037766
  33 H :    0.068808
Sum of atomic charges:    0.0000000

--------------------------------
MULLIKEN REDUCED ORBITAL CHARGES
--------------------------------
  0 S s       :     5.845382  s :     5.845382
      pz      :     3.562971  p :     9.923392
      px      :     3.078744
      py      :     3.281677
      dz2     :     0.015969  d :     0.103667
      dxz     :     0.015106
      dyz     :     0.016510
      dx2y2   :     0.022009
      dxy     :     0.034071
  1 C s       :     3.170906  s :     3.170906
      pz      :     1.069602  p :     2.913340
      px      :     0.877228
      py      :     0.966510
      dz2     :     0.002886  d :     0.033663
      dxz     :     0.004364
      dyz     :     0.007207
      dx2y2   :     0.008011
      dxy     :     0.011195
  2 C s       :     3.088229  s :     3.088229
      pz      :     0.995815  p :     2.943937
      px      :     1.000361
      py      :     0.947762
      dz2     :     0.005257  d :     0.045595
      dxz     :     0.006629
      dyz     :     0.009612
      dx2y2   :     0.012749
      dxy     :     0.011349
  3 C s       :     3.201523  s :     3.201523
      pz      :     0.991223  p :     2.758587
      px      :     0.925572
      py      :     0.841792
      dz2     :     0.003529  d :     0.032539
      dxz     :     0.005448
      dyz     :     0.005068
      dx2y2   :     0.009213
      dxy     :     0.009281
  4 C s       :     3.069412  s :     3.069412
      pz      :     1.078735  p :     3.036072
      px      :     1.030509
      py      :     0.926828
      dz2     :     0.004070  d :     0.044308
      dxz     :     0.006242
      dyz     :     0.009162
      dx2y2   :     0.011804
      dxy     :     0.013030
  5 H s       :     0.946734  s :     0.946734
      pz      :     0.006054  p :     0.023722
      px      :     0.004202
      py      :     0.013466
  6 C s       :     2.933145  s :     2.933145
      pz      :     0.960523  p :     2.936090
      px      :     1.012982
      py      :     0.962585
      dz2     :     0.006968  d :     0.038839
      dxz     :     0.004732
      dyz     :     0.011851
      dx2y2   :     0.006027
      dxy     :     0.009260
  7 H s       :     0.978637  s :     0.978637
      pz      :     0.005854  p :     0.025404
      px      :     0.013043
      py      :     0.006507
  8 H s       :     0.956324  s :     0.956324
      pz      :     0.011534  p :     0.025449
      px      :     0.005073
      py      :     0.008842
  9 C s       :     3.038110  s :     3.038110
      pz      :     0.968708  p :     2.976818
      px      :     1.006221
      py      :     1.001889
      dz2     :     0.010695  d :     0.037031
      dxz     :     0.004176
      dyz     :     0.008474
      dx2y2   :     0.003030
      dxy     :     0.010656
 10 H s       :     0.949218  s :     0.949218
      pz      :     0.003799  p :     0.022721
      px      :     0.012883
      py      :     0.006039
 11 H s       :     0.950294  s :     0.950294
      pz      :     0.004036  p :     0.023646
      px      :     0.010042
      py      :     0.009568
 12 C s       :     3.019481  s :     3.019481
      pz      :     0.984648  p :     3.008783
      px      :     1.037555
      py      :     0.986580
      dz2     :     0.006140  d :     0.027719
      dxz     :     0.003030
      dyz     :     0.007537
      dx2y2   :     0.002073
      dxy     :     0.008939
 13 H s       :     0.938159  s :     0.938159
      pz      :     0.004128  p :     0.024451
      px      :     0.010589
      py      :     0.009734
 14 H s       :     0.934276  s :     0.934276
      pz      :     0.008020  p :     0.022705
      px      :     0.004863
      py      :     0.009821
 15 H s       :     0.956672  s :     0.956672
      pz      :     0.004684  p :     0.024724
      px      :     0.012376
      py      :     0.007664
 16 S s       :     5.851225  s :     5.851225
      pz      :     3.368306  p :     9.960563
      px      :     2.950500
      py      :     3.641757
      dz2     :     0.013559  d :     0.109613
      dxz     :     0.045839
      dyz     :     0.011355
      dx2y2   :     0.014143
      dxy     :     0.024717
 17 C s       :     3.153713  s :     3.153713
      pz      :     0.980557  p :     2.912842
      px      :     0.898253
      py      :     1.034032
      dz2     :     0.007835  d :     0.035963
      dxz     :     0.009880
      dyz     :     0.005139
      dx2y2   :     0.005735
      dxy     :     0.007375
 18 C s       :     3.195754  s :     3.195754
      pz      :     0.945527  p :     2.836438
      px      :     0.906572
      py      :     0.984339
      dz2     :     0.006270  d :     0.035623
      dxz     :     0.010484
      dyz     :     0.004460
      dx2y2   :     0.007352
      dxy     :     0.007058
 19 C s       :     3.042727  s :     3.042727
      pz      :     0.985233  p :     2.924192
      px      :     0.956328
      py      :     0.982631
      dz2     :     0.009613  d :     0.043571
      dxz     :     0.009270
      dyz     :     0.006729
      dx2y2   :     0.009774
      dxy     :     0.008185
 20 C s       :     3.086392  s :     3.086392
      pz      :     0.948488  p :     3.011897
      px      :     0.941874
      py      :     1.121534
      dz2     :     0.009224  d :     0.046511
      dxz     :     0.016237
      dyz     :     0.005482
      dx2y2   :     0.007988
      dxy     :     0.007578
 21 H s       :     0.943788  s :     0.943788
      pz      :     0.008527  p :     0.022696
      px      :     0.008547
      py      :     0.005621
 22 C s       :     2.983809  s :     2.983809
      pz      :     0.957779  p :     2.946510
      px      :     0.986417
      py      :     1.002314
      dz2     :     0.010070  d :     0.034325
      dxz     :     0.006478
      dyz     :     0.006220
      dx2y2   :     0.005821
      dxy     :     0.005737
 23 H s       :     0.945835  s :     0.945835
      pz      :     0.004188  p :     0.022452
      px      :     0.006521
      py      :     0.011743
 24 H s       :     0.944212  s :     0.944212
      pz      :     0.003975  p :     0.021574
      px      :     0.012996
      py      :     0.004603
 25 C s       :     3.058081  s :     3.058081
      pz      :     0.967761  p :     2.976928
      px      :     1.026290
      py      :     0.982877
      dz2     :     0.006567  d :     0.035936
      dxz     :     0.007773
      dyz     :     0.008464
      dx2y2   :     0.007693
      dxy     :     0.005440
 26 H s       :     0.955143  s :     0.955143
      pz      :     0.004996  p :     0.021274
      px      :     0.011904
      py      :     0.004374
 27 H s       :     0.947350  s :     0.947350
      pz      :     0.007807  p :     0.023625
      px      :     0.009141
      py      :     0.006677
 28 C s       :     3.003723  s :     3.003723
      pz      :     1.035488  p :     3.010544
      px      :     1.015107
      py      :     0.959949
      dz2     :     0.007292  d :     0.028673
      dxz     :     0.003203
      dyz     :     0.004748
      dx2y2   :     0.007253
      dxy     :     0.006177
 29 H s       :     0.953077  s :     0.953077
      pz      :     0.007451  p :     0.025182
      px      :     0.012860
      py      :     0.004871
 30 H s       :     0.916824  s :     0.916824
      pz      :     0.006457  p :     0.021780
      px      :     0.008876
      py      :     0.006448
 31 H s       :     0.961088  s :     0.961088
      pz      :     0.013688  p :     0.025414
      px      :     0.006175
      py      :     0.005551
 32 H s       :     0.938262  s :     0.938262
      pz      :     0.007666  p :     0.023973
      px      :     0.011218
      py      :     0.005089
 33 H s       :     0.907713  s :     0.907713
      pz      :     0.003728  p :     0.023479
      px      :     0.013319
      py      :     0.006432


                     *******************************
                     * LOEWDIN POPULATION ANALYSIS *
                     *******************************

----------------------
LOEWDIN ATOMIC CHARGES
----------------------
   0 S :    0.401195
   1 C :   -0.202353
   2 C :   -0.061548
   3 C :   -0.052033
   4 C :   -0.194136
   5 H :    0.034645
   6 C :   -0.030980
   7 H :    0.020220
   8 H :    0.034542
   9 C :   -0.028031
  10 H :    0.023393
  11 H :    0.023323
  12 C :   -0.065825
  13 H :    0.027927
  14 H :    0.031684
  15 H :    0.017494
  16 S :    0.397413
  17 C :   -0.195909
  18 C :   -0.075391
  19 C :   -0.062838
  20 C :   -0.183636
  21 H :    0.038124
  22 C :   -0.040139
  23 H :    0.035705
  24 H :    0.033320
  25 C :   -0.039669
  26 H :    0.024231
  27 H :    0.022521
  28 C :   -0.071046
  29 H :    0.020476
  30 H :    0.039753
  31 H :    0.020285
  32 H :    0.023778
  33 H :    0.033506

-------------------------------
LOEWDIN REDUCED ORBITAL CHARGES
-------------------------------
  0 S s       :     5.517443  s :     5.517443
      pz      :     3.531356  p :     9.952848
      px      :     3.091971
      py      :     3.329521
      dz2     :     0.019280  d :     0.128514
      dxz     :     0.019029
      dyz     :     0.019204
      dx2y2   :     0.027006
      dxy     :     0.043995
  1 C s       :     2.929500  s :     2.929500
      pz      :     1.099781  p :     3.192462
      px      :     1.025966
      py      :     1.066715
      dz2     :     0.005817  d :     0.080391
      dxz     :     0.009008
      dyz     :     0.015812
      dx2y2   :     0.022018
      dxy     :     0.027735
  2 C s       :     2.856795  s :     2.856795
      pz      :     0.989991  p :     3.090611
      px      :     1.030610
      py      :     1.070011
      dz2     :     0.011560  d :     0.114141
      dxz     :     0.014884
      dyz     :     0.022390
      dx2y2   :     0.036462
      dxy     :     0.028846
  3 C s       :     2.876324  s :     2.876324
      pz      :     1.016093  p :     3.090356
      px      :     1.028949
      py      :     1.045315
      dz2     :     0.007948  d :     0.085353
      dxz     :     0.012754
      dyz     :     0.010956
      dx2y2   :     0.026528
      dxy     :     0.027167
  4 C s       :     2.910641  s :     2.910641
      pz      :     1.065242  p :     3.178139
      px      :     1.069053
      py      :     1.043844
      dz2     :     0.009180  d :     0.105356
      dxz     :     0.013566
      dyz     :     0.019030
      dx2y2   :     0.029999
      dxy     :     0.033581
  5 H s       :     0.896738  s :     0.896738
      pz      :     0.017511  p :     0.068617
      px      :     0.013560
      py      :     0.037546
  6 C s       :     2.796987  s :     2.796987
      pz      :     1.037744  p :     3.133251
      px      :     1.061604
      py      :     1.033902
      dz2     :     0.016203  d :     0.100742
      dxz     :     0.012393
      dyz     :     0.032317
      dx2y2   :     0.014790
      dxy     :     0.025040
  7 H s       :     0.903231  s :     0.903231
      pz      :     0.018293  p :     0.076549
      px      :     0.037561
      py      :     0.020695
  8 H s       :     0.892607  s :     0.892607
      pz      :     0.033059  p :     0.072851
      px      :     0.015038
      py      :     0.024754
  9 C s       :     2.831360  s :     2.831360
      pz      :     1.009625  p :     3.108010
      px      :     1.066151
      py      :     1.032234
      dz2     :     0.024709  d :     0.088662
      dxz     :     0.008489
      dyz     :     0.021811
      dx2y2   :     0.007796
      dxy     :     0.025856
 10 H s       :     0.907923  s :     0.907923
      pz      :     0.014212  p :     0.068684
      px      :     0.035549
      py      :     0.018923
 11 H s       :     0.907136  s :     0.907136
      pz      :     0.014442  p :     0.069541
      px      :     0.027248
      py      :     0.027851
 12 C s       :     2.833966  s :     2.833966
      pz      :     1.029920  p :     3.161473
      px      :     1.085802
      py      :     1.045752
      dz2     :     0.016515  d :     0.070386
      dxz     :     0.006119
      dyz     :     0.019734
      dx2y2   :     0.005421
      dxy     :     0.022596
 13 H s       :     0.904504  s :     0.904504
      pz      :     0.013745  p :     0.067570
      px      :     0.027195
      py      :     0.026629
 14 H s       :     0.904709  s :     0.904709
      pz      :     0.023924  p :     0.063606
      px      :     0.012864
      py      :     0.026818
 15 H s       :     0.911247  s :     0.911247
      pz      :     0.015620  p :     0.071259
      px      :     0.033825
      py      :     0.021815
 16 S s       :     5.504610  s :     5.504610
      pz      :     3.393413  p :     9.962657
      px      :     2.959774
      py      :     3.609471
      dz2     :     0.014094  d :     0.135320
      dxz     :     0.059817
      dyz     :     0.011320
      dx2y2   :     0.018994
      dxy     :     0.031094
 17 C s       :     2.931321  s :     2.931321
      pz      :     1.065461  p :     3.179973
      px      :     1.041365
      py      :     1.073147
      dz2     :     0.017960  d :     0.084615
      dxz     :     0.024228
      dyz     :     0.013087
      dx2y2   :     0.012332
      dxy     :     0.017008
 18 C s       :     2.875808  s :     2.875808
      pz      :     1.053676  p :     3.107982
      px      :     1.029089
      py      :     1.025217
      dz2     :     0.015694  d :     0.091602
      dxz     :     0.028060
      dyz     :     0.012404
      dx2y2   :     0.018620
      dxy     :     0.016824
 19 C s       :     2.852604  s :     2.852604
      pz      :     1.038695  p :     3.099649
      px      :     1.047470
      py      :     1.013484
      dz2     :     0.023007  d :     0.110586
      dxz     :     0.025030
      dyz     :     0.017866
      dx2y2   :     0.024942
      dxy     :     0.019741
 20 C s       :     2.902658  s :     2.902658
      pz      :     1.050535  p :     3.168582
      px      :     1.022134
      py      :     1.095913
      dz2     :     0.020284  d :     0.112396
      dxz     :     0.040670
      dyz     :     0.014058
      dx2y2   :     0.019125
      dxy     :     0.018260
 21 H s       :     0.896118  s :     0.896118
      pz      :     0.024061  p :     0.065758
      px      :     0.025679
      py      :     0.016018
 22 C s       :     2.840143  s :     2.840143
      pz      :     1.020850  p :     3.114705
      px      :     1.049830
      py      :     1.044026
      dz2     :     0.025000  d :     0.085290
      dxz     :     0.015036
      dyz     :     0.016353
      dx2y2   :     0.014652
      dxy     :     0.014248
 23 H s       :     0.898145  s :     0.898145
      pz      :     0.013538  p :     0.066150
      px      :     0.018013
      py      :     0.034599
 24 H s       :     0.905017  s :     0.905017
      pz      :     0.012674  p :     0.061664
      px      :     0.035881
      py      :     0.013109
 25 C s       :     2.840756  s :     2.840756
      pz      :     1.015272  p :     3.112486
      px      :     1.068956
      py      :     1.028258
      dz2     :     0.017712  d :     0.086427
      dxz     :     0.017813
      dyz     :     0.019061
      dx2y2   :     0.020183
      dxy     :     0.011659
 26 H s       :     0.914551  s :     0.914551
      pz      :     0.015703  p :     0.061218
      px      :     0.032685
      py      :     0.012830
 27 H s       :     0.906211  s :     0.906211
      pz      :     0.024136  p :     0.071267
      px      :     0.025120
      py      :     0.022011
 28 C s       :     2.831398  s :     2.831398
      pz      :     1.087640  p :     3.167864
      px      :     1.065907
      py      :     1.014317
      dz2     :     0.018136  d :     0.071785
      dxz     :     0.008676
      dyz     :     0.011041
      dx2y2   :     0.019658
      dxy     :     0.014274
 29 H s       :     0.907509  s :     0.907509
      pz      :     0.019219  p :     0.072015
      px      :     0.037034
      py      :     0.015761
 30 H s       :     0.899745  s :     0.899745
      pz      :     0.015847  p :     0.060503
      px      :     0.024246
      py      :     0.020410
 31 H s       :     0.907859  s :     0.907859
      pz      :     0.038107  p :     0.071857
      px      :     0.016114
      py      :     0.017635
 32 H s       :     0.900344  s :     0.900344
      pz      :     0.024457  p :     0.075878
      px      :     0.035396
      py      :     0.016026
 33 H s       :     0.892434  s :     0.892434
      pz      :     0.013510  p :     0.074060
      px      :     0.040941
      py      :     0.019610


                      *****************************
                      * MAYER POPULATION ANALYSIS *
                      *****************************

  NA   - Mulliken gross atomic population
  ZA   - Total nuclear charge
  QA   - Mulliken gross atomic charge
  VA   - Mayer's total valence
  BVA  - Mayer's bonded valence
  FA   - Mayer's free valence

  ATOM       NA         ZA         QA         VA         BVA        FA
  0 S     15.8724    16.0000     0.1276     2.4631     2.4631     0.0000
  1 C      6.1179     6.0000    -0.1179     3.8302     3.8302     0.0000
  2 C      6.0778     6.0000    -0.0778     4.0289     4.0289     0.0000
  3 C      5.9926     6.0000     0.0074     3.9021     3.9021    -0.0000
  4 C      6.1498     6.0000    -0.1498     3.8761     3.8761     0.0000
  5 H      0.9705     1.0000     0.0295     0.9992     0.9992    -0.0000
  6 C      5.9081     6.0000     0.0919     3.9914     3.9914     0.0000
  7 H      1.0040     1.0000    -0.0040     0.9954     0.9954     0.0000
  8 H      0.9818     1.0000     0.0182     0.9798     0.9798     0.0000
  9 C      6.0520     6.0000    -0.0520     4.0674     4.0674    -0.0000
 10 H      0.9719     1.0000     0.0281     0.9845     0.9845     0.0000
 11 H      0.9739     1.0000     0.0261     0.9760     0.9760    -0.0000
 12 C      6.0560     6.0000    -0.0560     3.9924     3.9924    -0.0000
 13 H      0.9626     1.0000     0.0374     0.9915     0.9915    -0.0000
 14 H      0.9570     1.0000     0.0430     0.9852     0.9852    -0.0000
 15 H      0.9814     1.0000     0.0186     0.9916     0.9916    -0.0000
 16 S     15.9214    16.0000     0.0786     2.4738     2.4738     0.0000
 17 C      6.1025     6.0000    -0.1025     3.8484     3.8484     0.0000
 18 C      6.0678     6.0000    -0.0678     3.9431     3.9431    -0.0000
 19 C      6.0105     6.0000    -0.0105     3.9695     3.9695     0.0000
 20 C      6.1448     6.0000    -0.1448     3.9594     3.9594     0.0000
 21 H      0.9665     1.0000     0.0335     0.9939     0.9939    -0.0000
 22 C      5.9646     6.0000     0.0354     3.9750     3.9750     0.0000
 23 H      0.9683     1.0000     0.0317     0.9787     0.9787     0.0000
 24 H      0.9658     1.0000     0.0342     0.9930     0.9930     0.0000
 25 C      6.0709     6.0000    -0.0709     4.0949     4.0949    -0.0000
 26 H      0.9764     1.0000     0.0236     0.9737     0.9737     0.0000
 27 H      0.9710     1.0000     0.0290     0.9808     0.9808    -0.0000
 28 C      6.0429     6.0000    -0.0429     3.9838     3.9838    -0.0000
 29 H      0.9783     1.0000     0.0217     0.9938     0.9938    -0.0000
 30 H      0.9386     1.0000     0.0614     0.9891     0.9891    -0.0000
 31 H      0.9865     1.0000     0.0135     0.9867     0.9867    -0.0000
 32 H      0.9622     1.0000     0.0378     1.0054     1.0054     0.0000
 33 H      0.9312     1.0000     0.0688     0.9922     0.9922     0.0000

  Mayer bond orders larger than 0.100000
B(  0-S ,  1-C ) :   1.1219 B(  0-S ,  4-C ) :   1.1430 B(  1-C ,  2-C ) :   1.6178 
B(  1-C , 32-H ) :   0.9644 B(  2-C ,  3-C ) :   1.2095 B(  2-C ,  6-C ) :   1.0573 
B(  3-C ,  4-C ) :   1.5825 B(  3-C ,  5-H ) :   0.9851 B(  4-C , 20-C ) :   1.0301 
B(  6-C ,  7-H ) :   0.9369 B(  6-C ,  8-H ) :   0.9170 B(  6-C ,  9-C ) :   1.0803 
B(  9-C , 10-H ) :   0.9532 B(  9-C , 11-H ) :   0.9545 B(  9-C , 12-C ) :   1.0696 
B( 12-C , 13-H ) :   0.9776 B( 12-C , 14-H ) :   0.9749 B( 12-C , 15-H ) :   0.9763 
B( 16-S , 17-C ) :   1.1412 B( 16-S , 20-C ) :   1.1524 B( 17-C , 18-C ) :   1.6349 
B( 17-C , 33-H ) :   0.9667 B( 18-C , 19-C ) :   1.1945 B( 18-C , 21-H ) :   0.9854 
B( 19-C , 20-C ) :   1.6156 B( 19-C , 22-C ) :   1.0441 B( 22-C , 23-H ) :   0.9312 
B( 22-C , 24-H ) :   0.9396 B( 22-C , 25-C ) :   1.0734 B( 25-C , 26-H ) :   0.9539 
B( 25-C , 27-H ) :   0.9572 B( 25-C , 28-C ) :   1.0814 B( 28-C , 29-H ) :   0.9767 
B( 28-C , 30-H ) :   0.9684 B( 28-C , 31-H ) :   0.9704 

-------
TIMINGS
-------

Total SCF time: 0 days 0 hours 0 min 33 sec 

Total time                  ....      33.784 sec
Sum of individual times     ....      32.782 sec  ( 97.0%)

Fock matrix formation       ....      30.688 sec  ( 90.8%)
  XC integration            ....       2.186 sec  (  7.1% of F)
    Basis function eval.    ....       0.224 sec  ( 10.2% of XC)
    Density eval.           ....       0.183 sec  (  8.4% of XC)
    XC-Functional eval.     ....       0.196 sec  (  9.0% of XC)
    XC-Potential eval.      ....       0.192 sec  (  8.8% of XC)
Diagonalization             ....       0.186 sec  (  0.6%)
Density matrix formation    ....       0.031 sec  (  0.1%)
Population analysis         ....       0.064 sec  (  0.2%)
Initial guess               ....       0.242 sec  (  0.7%)
Orbital Transformation      ....       0.000 sec  (  0.0%)
Orbital Orthonormalization  ....       0.000 sec  (  0.0%)
DIIS solution               ....       0.163 sec  (  0.5%)
SOSCF solution              ....       0.137 sec  (  0.4%)
Grid generation             ....       1.270 sec  (  3.8%)


-------------------------------------------------------------------------------
                          DFT DISPERSION CORRECTION                            
                                                                               
                              DFTD3 V3.1  Rev 1                                
                              USING zero damping                               
-------------------------------------------------------------------------------
The omegaB97X-D3 functional is recognized. Fit by Chai et al.
Active option DFTDOPT                   ...         3   

molecular C6(AA) [au] = 14169.951011 


            DFT-D V3
 parameters
 s6 scaling factor         :     1.0000 
 rs6 scaling factor        :     1.2810 
 s8 scaling factor         :     1.0000 
 rs8 scaling factor        :     1.0940 
 Damping factor alpha6     :    14.0000 
 Damping factor alpha8     :    16.0000 
 ad hoc parameters k1-k3   :    16.0000     1.3333    -4.0000 

 Edisp/kcal,au: -9.357290780353  -0.014911790449 
 E6   /kcal   :  -4.358134408 
 E8   /kcal   :  -4.999156373 
 % E8         :  53.425254063 

-------------------------   ----------------
Dispersion correction           -0.014911790
-------------------------   ----------------


-------------------------   --------------------
FINAL SINGLE POINT ENERGY     -1339.865319410903
-------------------------   --------------------


                            ***************************************
                            *     ORCA property calculations      *
                            ***************************************

                                    ---------------------
                                    Active property flags
                                    ---------------------
   (+) Dipole Moment


------------------------------------------------------------------------------
                       ORCA ELECTRIC PROPERTIES CALCULATION
------------------------------------------------------------------------------

Dipole Moment Calculation                       ... on
Quadrupole Moment Calculation                   ... off
Polarizability Calculation                      ... off
GBWName                                         ... config_4386.gbw
Electron density file                           ... config_4386.scfp
The origin for moment calculation is the CENTER OF MASS  = (14.815186, -15.687378 130.516598)

-------------
DIPOLE MOMENT
-------------
                                X             Y             Z
Electronic contribution:    -10.74402     -14.01358      -6.18187
Nuclear contribution   :     10.95441      14.54360       6.44737
                        -----------------------------------------
Total Dipole Moment    :      0.21039       0.53002       0.26550
                        -----------------------------------------
Magnitude (a.u.)       :      0.62902
Magnitude (Debye)      :      1.59885



--------------------
Rotational spectrum 
--------------------
 
Rotational constants in cm-1:     0.020426     0.008386     0.007632 
Rotational constants in MHz :   612.360668   251.396529   228.787521 

 Dipole components along the rotational axes: 
x,y,z [a.u.] :     0.063802     0.514085     0.356814 
x,y,z [Debye]:     0.162172     1.306701     0.906950 

 

Timings for individual modules:

Sum of individual times         ...       35.051 sec (=   0.584 min)
GTO integral calculation        ...        0.834 sec (=   0.014 min)   2.4 %
SCF iterations                  ...       34.217 sec (=   0.570 min)  97.6 %
                             ****ORCA TERMINATED NORMALLY****
TOTAL RUN TIME: 0 days 0 hours 0 minutes 35 seconds 930 msec
