
                                 *****************
                                 * O   R   C   A *
                                 *****************

           --- An Ab Initio, DFT and Semiempirical electronic structure package ---

                  #######################################################
                  #                        -***-                        #
                  #          Department of theory and spectroscopy      #
                  #               Directorship: Frank Neese             #
                  #        Max Planck Institute fuer Kohlenforschung    #
                  #                Kaiser Wilhelm Platz 1               #
                  #                 D-45470 Muelheim/Ruhr               #
                  #                      Germany                        #
                  #                                                     #
                  #                  All rights reserved                #
                  #                        -***-                        #
                  #######################################################


                         Program Version 4.2.1 -  RELEASE  -


 With contributions from (in alphabetic order):
   Daniel Aravena         : Magnetic Suceptibility
   Michael Atanasov       : Ab Initio Ligand Field Theory (pilot matlab implementation)
   Alexander A. Auer      : GIAO ZORA, VPT2
   Ute Becker             : Parallelization
   Giovanni Bistoni       : ED, misc. LED, open-shell LED, HFLD
   Martin Brehm           : Molecular dynamics
   Dmytro Bykov           : SCF Hessian
   Vijay G. Chilkuri      : MRCI spin determinant printing, contributions to CSF-ICE
   Dipayan Datta          : RHF DLPNO-CCSD density
   Achintya Kumar Dutta   : EOM-CC, STEOM-CC
   Dmitry Ganyushin       : Spin-Orbit,Spin-Spin,Magnetic field MRCI
   Miquel Garcia          : C-PCM Hessian, Gaussian charge scheme
   Yang Guo               : DLPNO-NEVPT2, CIM, IAO-localization
   Andreas Hansen         : Spin unrestricted coupled pair/coupled cluster methods
   Benjamin Helmich-Paris : CASSCF linear response (MC-RPA)
   Lee Huntington         : MR-EOM, pCC
   Robert Izsak           : Overlap fitted RIJCOSX, COSX-SCS-MP3, EOM
   Christian Kollmar      : KDIIS, OOCD, Brueckner-CCSD(T), CCSD density
   Simone Kossmann        : Meta GGA functionals, TD-DFT gradient, OOMP2, MP2 Hessian
   Martin Krupicka        : AUTO-CI
   Lucas Lang             : DCDCAS
   Dagmar Lenk            : GEPOL surface, SMD
   Dimitrios Liakos       : Extrapolation schemes; Compound Job, initial MDCI parallelization
   Dimitrios Manganas     : Further ROCIS development; embedding schemes
   Dimitrios Pantazis     : SARC Basis sets
   Taras Petrenko         : DFT Hessian,TD-DFT gradient, ASA, ECA, R-Raman, ABS, FL, XAS/XES, NRVS
   Peter Pinski           : DLPNO-MP2, DLPNO-MP2 Gradient
   Christoph Reimann      : Effective Core Potentials
   Marius Retegan         : Local ZFS, SOC
   Christoph Riplinger    : Optimizer, TS searches, QM/MM, DLPNO-CCSD(T), (RO)-DLPNO pert. Triples
   Tobias Risthaus        : Range-separated hybrids, TD-DFT gradient, RPA, STAB
   Michael Roemelt        : Original ROCIS implementation
   Masaaki Saitow         : Open-shell DLPNO-CCSD energy and density
   Barbara Sandhoefer     : DKH picture change effects
   Avijit Sen             : IP-ROCIS
   Kantharuban Sivalingam : CASSCF convergence, NEVPT2, FIC-MRCI
   Bernardo de Souza      : ESD, SOC TD-DFT
   Georgi Stoychev        : AutoAux, RI-MP2 NMR
   Willem Van den Heuvel  : Paramagnetic NMR
   Boris Wezisla          : Elementary symmetry handling
   Frank Wennmohs         : Technical directorship


 We gratefully acknowledge several colleagues who have allowed us to
 interface, adapt or use parts of their codes:
   Stefan Grimme, W. Hujo, H. Kruse,             : VdW corrections, initial TS optimization,
                  C. Bannwarth                     DFT functionals, gCP, sTDA/sTD-DF
   Ed Valeev, F. Pavosevic, A. Kumar             : LibInt (2-el integral package), F12 methods
   Garnet Chan, S. Sharma, J. Yang, R. Olivares  : DMRG
   Ulf Ekstrom                                   : XCFun DFT Library
   Mihaly Kallay                                 : mrcc  (arbitrary order and MRCC methods)
   Andreas Klamt, Michael Diedenhofen            : otool_cosmo (COSMO solvation model)
   Jiri Pittner, Ondrej Demel                    : Mk-CCSD
   Frank Weinhold                                : gennbo (NPA and NBO analysis)
   Christopher J. Cramer and Donald G. Truhlar   : smd solvation model
   Lars Goerigk                                  : TD-DFT with DH, B97 family of functionals
   V. Asgeirsson, H. Jonsson                     : NEB implementation
   FAccTs GmbH                                   : IRC, NEB, NEB-TS, Multilevel, MM, QM/MM, CI optimization
   S Lehtola, MJT Oliveira, MAL Marques          : LibXC Library


 Your calculation uses the libint2 library for the computation of 2-el integrals
 For citations please refer to: http://libint.valeyev.net

 Your ORCA version has been built with support for libXC version: 4.2.3
 For citations please refer to: https://tddft.org/programs/libxc/

 This ORCA versions uses:
   CBLAS   interface :  Fast vector & matrix operations
   LAPACKE interface :  Fast linear algebra routines
   SCALAPACK package :  Parallel linear algebra routines


Your calculation utilizes the atom-pairwise dispersion correction
with the zero-damping scheme (D30)
Cite in your paper:
S.Grimme, J.Antony, S.Ehrlich and H.Krieg, J.Chem.Phys., 132, (2010), 154104 
   

XCFun DFT library Copyright 2009-2010 Ulf Ekstrom and contributors.
See http://admol.org/xcfun for more information. This is free soft-
ware; see the source code for copying conditions. There is ABSOLUTELY
NO WARRANTY; not even for MERCHANTABILITY or FITNESS FOR A PARTICULAR
PURPOSE. For details see the documentation. Scientific users of this 
library should cite U. Ekstrom, L. Visscher, R. Bast, A. J. Thorvald-
sen and K. Ruud; J.Chem.Theor.Comp. 2010, DOI: 10.1021/ct100117s
XCFun Version 0.99 
----- Orbital basis set information -----
Your calculation utilizes the basis: def2-SVP
   F. Weigend and R. Ahlrichs, Phys. Chem. Chem. Phys. 7, 3297 (2005).

================================================================================
                                        WARNINGS
                       Please study these warnings very carefully!
================================================================================


INFO   : the flag for use of LIBINT has been found!

================================================================================
                                       INPUT FILE
================================================================================
NAME = config_4534.inp
|  1> ! wB97X-D3 SP def2-SVP
|  2> %pal
|  3> nprocs 16
|  4> end
|  5> 
|  6> * xyz 0 1
|  7> S 	 26.3501 	 6.6879 	 75.7933 	 
|  8> C 	 27.9564 	 7.44864 	 75.7108 	 
|  9> C 	 28.9475 	 6.61073 	 76.0449 	 
| 10> C 	 28.4897 	 5.33013 	 76.3596 	 
| 11> C 	 27.1368 	 5.18715 	 76.1924 	 
| 12> H 	 29.0734 	 4.43135 	 76.6838 	 
| 13> C 	 30.4842 	 6.92113 	 76.0651 	 
| 14> H 	 30.8965 	 6.96506 	 77.0369 	 
| 15> H 	 30.6566 	 7.92047 	 75.5992 	 
| 16> C 	 31.3586 	 5.89043 	 75.3169 	 
| 17> H 	 32.3714 	 5.99366 	 75.6532 	 
| 18> H 	 31.0749 	 4.90833 	 75.6795 	 
| 19> C 	 31.1936 	 5.69455 	 73.8065 	 
| 20> H 	 31.7788 	 4.91768 	 73.384 	 
| 21> H 	 30.1144 	 5.36302 	 73.7429 	 
| 22> H 	 31.3231 	 6.56527 	 73.1003 	 
| 23> S 	 25.8069 	 3.15102 	 74.8792 	 
| 24> C 	 25.1873 	 1.76444 	 75.7486 	 
| 25> C 	 25.5517 	 1.83159 	 77.1119 	 
| 26> C 	 26.2875 	 3.02851 	 77.4491 	 
| 27> C 	 26.4634 	 3.93425 	 76.3332 	 
| 28> H 	 25.2673 	 1.0838 	 77.8193 	 
| 29> C 	 26.6275 	 3.32415 	 78.9359 	 
| 30> H 	 27.4671 	 4.01157 	 78.8667 	 
| 31> H 	 27.1239 	 2.37858 	 79.3508 	 
| 32> C 	 25.4981 	 3.93626 	 79.8235 	 
| 33> H 	 24.6001 	 3.31929 	 79.8391 	 
| 34> H 	 25.212 	 4.90735 	 79.3588 	 
| 35> C 	 25.9701 	 4.2444 	 81.2673 	 
| 36> H 	 26.8624 	 4.89602 	 81.1149 	 
| 37> H 	 26.3169 	 3.30964 	 81.6066 	 
| 38> H 	 25.247 	 4.83694 	 81.8995 	 
| 39> H 	 28.0643 	 8.52036 	 75.5648 	 
| 40> H 	 24.4544 	 1.09662 	 75.3639 	 
| 41> *
| 42> 
| 43>                          ****END OF INPUT****
================================================================================

                       ****************************
                       * Single Point Calculation *
                       ****************************

---------------------------------
CARTESIAN COORDINATES (ANGSTROEM)
---------------------------------
  S     26.350100    6.687900   75.793300
  C     27.956400    7.448640   75.710800
  C     28.947500    6.610730   76.044900
  C     28.489700    5.330130   76.359600
  C     27.136800    5.187150   76.192400
  H     29.073400    4.431350   76.683800
  C     30.484200    6.921130   76.065100
  H     30.896500    6.965060   77.036900
  H     30.656600    7.920470   75.599200
  C     31.358600    5.890430   75.316900
  H     32.371400    5.993660   75.653200
  H     31.074900    4.908330   75.679500
  C     31.193600    5.694550   73.806500
  H     31.778800    4.917680   73.384000
  H     30.114400    5.363020   73.742900
  H     31.323100    6.565270   73.100300
  S     25.806900    3.151020   74.879200
  C     25.187300    1.764440   75.748600
  C     25.551700    1.831590   77.111900
  C     26.287500    3.028510   77.449100
  C     26.463400    3.934250   76.333200
  H     25.267300    1.083800   77.819300
  C     26.627500    3.324150   78.935900
  H     27.467100    4.011570   78.866700
  H     27.123900    2.378580   79.350800
  C     25.498100    3.936260   79.823500
  H     24.600100    3.319290   79.839100
  H     25.212000    4.907350   79.358800
  C     25.970100    4.244400   81.267300
  H     26.862400    4.896020   81.114900
  H     26.316900    3.309640   81.606600
  H     25.247000    4.836940   81.899500
  H     28.064300    8.520360   75.564800
  H     24.454400    1.096620   75.363900

----------------------------
CARTESIAN COORDINATES (A.U.)
----------------------------
  NO LB      ZA    FRAG     MASS         X           Y           Z
   0 S    16.0000    0    32.060   49.794473   12.638299  143.228580
   1 C     6.0000    0    12.011   52.829940   14.075890  143.072677
   2 C     6.0000    0    12.011   54.702847   12.492469  143.704035
   3 C     6.0000    0    12.011   53.837731   10.072486  144.298732
   4 C     6.0000    0    12.011   51.281120    9.802293  143.982769
   5 H     1.0000    0     1.008   54.940764    8.374038  144.911381
   6 C     6.0000    0    12.011   57.606789   13.079040  143.742207
   7 H     1.0000    0     1.008   58.385923   13.162056  145.578643
   8 H     1.0000    0     1.008   57.932578   14.967519  142.861784
   9 C     6.0000    0    12.011   59.259166   11.131300  142.328314
  10 H     1.0000    0     1.008   61.173081   11.326376  142.963829
  11 H     1.0000    0     1.008   58.723051    9.275399  143.013529
  12 C     6.0000    0    12.011   58.947361   10.761140  139.474072
  13 H     1.0000    0     1.008   60.053229    9.293068  138.675663
  14 H     1.0000    0     1.008   56.907969   10.134639  139.353885
  15 H     1.0000    0     1.008   59.192081   12.406562  138.139547
  16 S    16.0000    0    32.060   48.767973    5.954565  141.501181
  17 C     6.0000    0    12.011   47.597099    3.334308  143.144109
  18 C     6.0000    0    12.011   48.285715    3.461203  145.720373
  19 C     6.0000    0    12.011   49.676176    5.723054  146.357588
  20 C     6.0000    0    12.011   50.008579    7.434655  144.248843
  21 H     1.0000    0     1.008   47.748277    2.048085  147.057165
  22 C     6.0000    0    12.011   50.318683    6.281733  149.167233
  23 H     1.0000    0     1.008   51.905297    7.580769  149.036464
  24 H     1.0000    0     1.008   51.256743    4.494865  149.951281
  25 C     6.0000    0    12.011   48.184426    7.438453  150.844554
  26 H     1.0000    0     1.008   46.487452    6.272549  150.874034
  27 H     1.0000    0     1.008   47.643775    9.273548  149.966398
  28 C     6.0000    0    12.011   49.076377    8.020754  153.572941
  29 H     1.0000    0     1.008   50.762579    9.252137  153.284946
  30 H     1.0000    0     1.008   49.731734    6.254313  154.214125
  31 H     1.0000    0     1.008   47.709916    9.140492  154.767626
  32 H     1.0000    0     1.008   53.033841   16.101147  142.796777
  33 H     1.0000    0     1.008   46.212119    2.072311  142.417131

--------------------------------
INTERNAL COORDINATES (ANGSTROEM)
--------------------------------
 S      0   0   0     0.000000000000     0.00000000     0.00000000
 C      1   0   0     1.779250203766     0.00000000     0.00000000
 C      2   1   0     1.340147450134   112.87807646     0.00000000
 C      3   2   1     1.395905902989   112.78372737     0.94059058
 C      4   3   2     1.370670467472   113.07300641     3.18187534
 H      4   3   2     1.119650310767   129.10404513   180.84958880
 C      3   2   1     1.567865775505   127.17667665   178.95680885
 H      7   3   2     1.056558741812   113.73793559   109.93200686
 H      7   3   2     1.116004034760   108.86325740   351.18437022
 C      7   3   2     1.544901644118   114.60866055   230.23682641
 H     10   7   3     1.072155754963   108.57289237   198.69931430
 H     10   7   3     1.084658868032   107.10590507   309.59145461
 C     10   7   3     1.531960226116   120.12125076    63.36471924
 H     13  10   7     1.060420806520   115.28076246   184.45409427
 H     13  10   7     1.130765113054   101.28767374   299.33486910
 H     13  10   7     1.128557490073   120.39369686    57.52204646
 S      5   4   3     2.763865703485   127.57083234   131.96240273
 C     17   5   4     1.749961318544   121.20065894    94.70891035
 C     18  17   5     1.412757365049   110.51371947   355.99543828
 C     19  18  17     1.444895486324   113.32389057     2.10273005
 C      5   4   3     1.429353213870   122.98602029   174.01309628
 H     19  18  17     1.067936329610   122.49578021   179.62523970
 C     20  19  18     1.553569196914   119.50038139   173.47201902
 H     23  20  19     1.087319206305   103.20244386   158.72789471
 H     23  20  19     1.145712701728   106.51912390    51.57965036
 C     23  20  19     1.561427799195   117.40813114   280.25955722
 H     26  23  20     1.089632663286   112.47460607    56.69968493
 H     26  23  20     1.113918797804   106.88099967   299.88189126
 C     26  23  20     1.549933127461   112.78011941   182.48745729
 H     29  26  23     1.115362575309   103.44393467    54.76742890
 H     29  26  23     1.053171869924   102.94006572   303.02180056
 H     29  26  23     1.128562847873   115.53643200   170.61532364
 H      2   1   3     1.086987657888   121.15806287   189.47038175
 H     18  17   5     1.063541279124   124.18167453   162.53675431

---------------------------
INTERNAL COORDINATES (A.U.)
---------------------------
 S      0   0   0     0.000000000000     0.00000000     0.00000000
 C      1   0   0     3.362295608841     0.00000000     0.00000000
 C      2   1   0     2.532511659826   112.87807646     0.00000000
 C      3   2   1     2.637879865374   112.78372737     0.94059058
 C      4   3   2     2.590191803376   113.07300641     3.18187534
 H      4   3   2     2.115832453109   129.10404513   180.84958880
 C      3   2   1     2.962836930453   127.17667665   178.95680885
 H      7   3   2     1.996606666426   113.73793559   109.93200686
 H      7   3   2     2.108941990047   108.86325740   351.18437022
 C      7   3   2     2.919441011229   114.60866055   230.23682641
 H     10   7   3     2.026080749787   108.57289237   198.69931430
 H     10   7   3     2.049708209309   107.10590507   309.59145461
 C     10   7   3     2.894985275418   120.12125076    63.36471924
 H     13  10   7     2.003904911034   115.28076246   184.45409427
 H     13  10   7     2.136836385465   101.28767374   299.33486910
 H     13  10   7     2.132664582624   120.39369686    57.52204646
 S      5   4   3     5.222949250524   127.57083234   131.96240273
 C     17   5   4     3.306947637004   121.20065894    94.70891035
 C     18  17   5     2.669724513623   110.51371947   355.99543828
 C     19  18  17     2.730456761292   113.32389057     2.10273005
 C      5   4   3     2.701086122854   122.98602029   174.01309628
 H     19  18  17     2.018107191427   122.49578021   179.62523970
 C     20  19  18     2.935820312263   119.50038139   173.47201902
 H     23  20  19     2.054735520069   103.20244386   158.72789471
 H     23  20  19     2.165083234420   106.51912390    51.57965036
 C     23  20  19     2.950670918371   117.40813114   280.25955722
 H     26  23  20     2.059107320186   112.47460607    56.69968493
 H     26  23  20     2.105001463275   106.88099967   299.88189126
 C     26  23  20     2.928949136793   112.78011941   182.48745729
 H     29  26  23     2.107729807359   103.44393467    54.76742890
 H     29  26  23     1.990206406107   102.94006572   303.02180056
 H     29  26  23     2.132674707399   115.53643200   170.61532364
 H      2   1   3     2.054108984360   121.15806287   189.47038175
 H     18  17   5     2.009801749664   124.18167453   162.53675431

---------------------
BASIS SET INFORMATION
---------------------
There are 3 groups of distinct atoms

 Group   1 Type S   : 10s7p1d contracted to 4s3p1d pattern {5311/511/1}
 Group   2 Type C   : 7s4p1d contracted to 3s2p1d pattern {511/31/1}
 Group   3 Type H   : 4s1p contracted to 2s1p pattern {31/1}

Atom   0S    basis set group =>   1
Atom   1C    basis set group =>   2
Atom   2C    basis set group =>   2
Atom   3C    basis set group =>   2
Atom   4C    basis set group =>   2
Atom   5H    basis set group =>   3
Atom   6C    basis set group =>   2
Atom   7H    basis set group =>   3
Atom   8H    basis set group =>   3
Atom   9C    basis set group =>   2
Atom  10H    basis set group =>   3
Atom  11H    basis set group =>   3
Atom  12C    basis set group =>   2
Atom  13H    basis set group =>   3
Atom  14H    basis set group =>   3
Atom  15H    basis set group =>   3
Atom  16S    basis set group =>   1
Atom  17C    basis set group =>   2
Atom  18C    basis set group =>   2
Atom  19C    basis set group =>   2
Atom  20C    basis set group =>   2
Atom  21H    basis set group =>   3
Atom  22C    basis set group =>   2
Atom  23H    basis set group =>   3
Atom  24H    basis set group =>   3
Atom  25C    basis set group =>   2
Atom  26H    basis set group =>   3
Atom  27H    basis set group =>   3
Atom  28C    basis set group =>   2
Atom  29H    basis set group =>   3
Atom  30H    basis set group =>   3
Atom  31H    basis set group =>   3
Atom  32H    basis set group =>   3
Atom  33H    basis set group =>   3


           ************************************************************
           *        Program running with 16 parallel MPI-processes    *
           *              working on a common directory               *
           ************************************************************
------------------------------------------------------------------------------
                           ORCA GTO INTEGRAL CALCULATION
------------------------------------------------------------------------------

                         BASIS SET STATISTICS AND STARTUP INFO

 # of primitive gaussian shells          ...  294
 # of primitive gaussian functions       ...  534
 # of contracted shells                  ...  154
 # of contracted basis functions         ...  322
 Highest angular momentum                ...    2
 Maximum contraction depth               ...    5
 Integral package used                   ... LIBINT
 Integral threshhold            Thresh   ...  1.000e-10
 Primitive cut-off              TCut     ...  1.000e-11


------------------------------ INTEGRAL EVALUATION ----------------------------


 * One electron integrals 
 Pre-screening matrix                    ... done
 Shell pair data                         ... done (   0.003 sec)



           ************************************************************
           *        Program running with 16 parallel MPI-processes    *
           *              working on a common directory               *
           ************************************************************
-------------------------------------------------------------------------------
                                 ORCA SCF
-------------------------------------------------------------------------------

------------
SCF SETTINGS
------------
Hamiltonian:
 Density Functional     Method          .... DFT(GTOs)
 Exchange Functional    Exchange        .... WB97X-D3
 Correlation Functional Correlation     .... WB97X-D3
 Gradients option       PostSCFGGA      .... off
 Hybrid DFT is turned on
   Fraction HF Exchange ScalHFX         ....  0.195728
   Scaling of DF-GGA-X  ScalDFX         ....  0.000000
   Scaling of DF-GGA-C  ScalDFC         ....  1.000000
   Scaling of DF-LDA-C  ScalLDAC        ....  1.000000
   Perturbative correction              ....  0.000000
   Density functional embedding theory  .... OFF
 Long-range corrected/Screened/Range-Separated Hybrid DFT is turned on
   Amount of maximum screened exact exchange              ....  0.804272
   Range separation parameter mu (erf(mu*r12)/r12)        ....  0.250000


General Settings:
 Integral files         IntName         .... config_4534
 Hartree-Fock type      HFTyp           .... RHF
 Total Charge           Charge          ....    0
 Multiplicity           Mult            ....    1
 Number of Electrons    NEL             ....  134
 Basis Dimension        Dim             ....  322
 Nuclear Repulsion      ENuc            ....   1277.5192703198 Eh

Convergence Acceleration:
 DIIS                   CNVDIIS         .... on
   Start iteration      DIISMaxIt       ....    12
   Startup error        DIISStart       ....  0.200000
   # of expansion vecs  DIISMaxEq       ....     5
   Bias factor          DIISBfac        ....   1.050
   Max. coefficient     DIISMaxC        ....  10.000
 Newton-Raphson         CNVNR           .... off
 SOSCF                  CNVSOSCF        .... on
   Start iteration      SOSCFMaxIt      ....   150
   Startup grad/error   SOSCFStart      ....  0.003300
 Level Shifting         CNVShift        .... on
   Level shift para.    LevelShift      ....    0.2500
   Turn off err/grad.   ShiftErr        ....    0.0010
 Zerner damping         CNVZerner       .... off
 Static damping         CNVDamp         .... on
   Fraction old density DampFac         ....    0.7000
   Max. Damping (<1)    DampMax         ....    0.9800
   Min. Damping (>=0)   DampMin         ....    0.0000
   Turn off err/grad.   DampErr         ....    0.1000
 Fernandez-Rico         CNVRico         .... off

SCF Procedure:
 Maximum # iterations   MaxIter         ....   125
 SCF integral mode      SCFMode         .... Direct
   Integral package                     .... LIBINT
 Reset frequency        DirectResetFreq ....    20
 Integral Threshold     Thresh          ....  1.000e-10 Eh
 Primitive CutOff       TCut            ....  1.000e-11 Eh

Convergence Tolerance:
 Convergence Check Mode ConvCheckMode   .... Total+1el-Energy
 Convergence forced     ConvForced      .... 0
 Energy Change          TolE            ....  1.000e-06 Eh
 1-El. energy change                    ....  1.000e-03 Eh
 Orbital Gradient       TolG            ....  5.000e-05
 Orbital Rotation angle TolX            ....  5.000e-05
 DIIS Error             TolErr          ....  1.000e-06


Diagonalization of the overlap matrix:
Smallest eigenvalue                        ... 6.738e-04
Time for diagonalization                   ...    0.015 sec
Threshold for overlap eigenvalues          ... 1.000e-08
Number of eigenvalues below threshold      ... 0
Time for construction of square roots      ...    0.024 sec
Total time needed                          ...    0.039 sec

-------------------
DFT GRID GENERATION
-------------------

General Integration Accuracy     IntAcc      ...  4.340
Radial Grid Type                 RadialGrid  ... Gauss-Chebyshev
Angular Grid (max. acc.)         AngularGrid ... Lebedev-110
Angular grid pruning method      GridPruning ... 3 (G Style)
Weight generation scheme         WeightScheme... Becke
Basis function cutoff            BFCut       ...    1.0000e-10
Integration weight cutoff        WCut        ...    1.0000e-14
Grids for H and He will be reduced by one unit

# of grid points (after initial pruning)     ...  41088 (   0.0 sec)
# of grid points (after weights+screening)   ...  36998 (   0.0 sec)
nearest neighbour list constructed           ...    0.0 sec
Grid point re-assignment to atoms done       ...    0.0 sec
Grid point division into batches done        ...    0.0 sec
Reduced shell lists constructed in    0.1 sec

Total number of grid points                  ...    36998
Total number of batches                      ...      593
Average number of points per batch           ...       62
Average number of grid points per atom       ...     1088
Average number of shells per batch           ...    77.79 (50.52%)
Average number of basis functions per batch  ...   152.87 (47.48%)
Average number of large shells per batch     ...    49.28 (63.35%)
Average number of large basis fcns per batch ...   100.21 (65.55%)
Maximum spatial batch extension              ...  15.66, 17.30, 18.45 au
Average spatial batch extension              ...   0.22,  0.21,  0.22 au

Time for grid setup =    0.172 sec

------------------------------
INITIAL GUESS: MODEL POTENTIAL
------------------------------
Loading Hartree-Fock densities                     ... done
Calculating cut-offs                               ... done
Setting up the integral package                    ... done
Initializing the effective Hamiltonian             ... done
Starting the Coulomb interaction                   ... done (   0.0 sec)
Reading the grid                                   ... done
Mapping shells                                     ... done
Starting the XC term evaluation                    ... done (   0.0 sec)
  promolecular density results
     # of electrons  =    133.992562937
     EX              =   -126.661573676
     EC              =     -4.607557713
     EX+EC           =   -131.269131389
Transforming the Hamiltonian                       ... done (   0.0 sec)
Diagonalizing the Hamiltonian                      ... done (   0.0 sec)
Back transforming the eigenvectors                 ... done (   0.0 sec)
Now organizing SCF variables                       ... done
                      ------------------
                      INITIAL GUESS DONE (   0.4 sec)
                      ------------------
--------------
SCF ITERATIONS
--------------
ITER       Energy         Delta-E        Max-DP      RMS-DP      [F,P]     Damp
               ***  Starting incremental Fock matrix formation  ***
  0  -1339.4314070551   0.000000000000 0.06475113  0.00152964  0.1580285 0.7000
  1  -1339.6132711605  -0.181864105370 0.04364850  0.00112102  0.0949935 0.7000
                               ***Turning on DIIS***
  2  -1339.7016809372  -0.088409776662 0.09333974  0.00213541  0.0488901 0.0000
  3  -1339.8350722540  -0.133391316852 0.04509822  0.00094032  0.0370773 0.0000
  4  -1339.8637835211  -0.028711267068 0.00758042  0.00019478  0.0076261 0.0000
                      *** Initiating the SOSCF procedure ***
                           *** Shutting down DIIS ***
                      *** Re-Reading the Fockian *** 
                      *** Removing any level shift *** 
ITER      Energy       Delta-E        Grad      Rot      Max-DP    RMS-DP
  5  -1339.86470386  -0.0009203380  0.001617  0.001617  0.003605  0.000100
               *** Restarting incremental Fock matrix formation ***
  6  -1339.86490048  -0.0001966223  0.001212  0.003395  0.003028  0.000065
  7  -1339.86496959  -0.0000691124  0.000691  0.004110  0.003998  0.000069
  8  -1339.86498800  -0.0000184080  0.000480  0.001032  0.000929  0.000022
  9  -1339.86499375  -0.0000057471  0.000196  0.000496  0.000361  0.000010
 10  -1339.86499437  -0.0000006219  0.000085  0.000255  0.000163  0.000004
                 **** Energy Check signals convergence ****
              ***Rediagonalizing the Fockian in SOSCF/NRSCF***

               *****************************************************
               *                     SUCCESS                       *
               *           SCF CONVERGED AFTER  11 CYCLES          *
               *****************************************************

Setting up the final grid:

General Integration Accuracy     IntAcc      ...  4.670
Radial Grid Type                 RadialGrid  ... Gauss-Chebyshev
Angular Grid (max. acc.)         AngularGrid ... Lebedev-302
Angular grid pruning method      GridPruning ... 3 (G Style)
Weight generation scheme         WeightScheme... Becke
Basis function cutoff            BFCut       ...    1.0000e-10
Integration weight cutoff        WCut        ...    1.0000e-14
Grids for H and He will be reduced by one unit

# of grid points (after initial pruning)     ... 161752 (   0.0 sec)
# of grid points (after weights+screening)   ... 142860 (   0.2 sec)
nearest neighbour list constructed           ...    0.0 sec
Grid point re-assignment to atoms done       ...    0.0 sec
Grid point division into batches done        ...    0.6 sec
Reduced shell lists constructed in    0.7 sec

Total number of grid points                  ...   142860
Total number of batches                      ...     2252
Average number of points per batch           ...       63
Average number of grid points per atom       ...     4202
Average number of shells per batch           ...    72.04 (46.78%)
Average number of basis functions per batch  ...   140.92 (43.76%)
Average number of large shells per batch     ...    44.57 (61.87%)
Average number of large basis fcns per batch ...    90.77 (64.41%)
Maximum spatial batch extension              ...  13.52, 17.48, 13.78 au
Average spatial batch extension              ...   0.13,  0.14,  0.14 au

Final grid set up in    1.1 sec
Final integration                            ... done (   0.4 sec)
Change in XC energy                          ...     0.007387062
Integrated number of electrons               ...   134.000254547
Previous integrated no of electrons          ...   134.001848230

----------------
TOTAL SCF ENERGY
----------------

Total Energy       :        -1339.85760762 Eh          -36459.37906 eV

Components:
Nuclear Repulsion  :         1277.51927032 Eh           34763.06667 eV
Electronic Energy  :        -2617.37687794 Eh          -71222.44573 eV
One Electron Energy:        -4371.73157037 Eh         -118960.86388 eV
Two Electron Energy:         1754.35469243 Eh           47738.41816 eV

Virial components:
Potential Energy   :        -2671.00200476 Eh          -72681.65961 eV
Kinetic Energy     :         1331.14439713 Eh           36222.28055 eV
Virial Ratio       :            2.00654565


DFT components:
N(Alpha)           :       67.000127273685 electrons
N(Beta)            :       67.000127273685 electrons
N(Total)           :      134.000254547370 electrons
E(XC)              :      -94.177942309464 Eh       
DFET-embed. en.    :        0.000000000000 Eh       

---------------
SCF CONVERGENCE
---------------

  Last Energy change         ...   -3.1517e-07  Tolerance :   1.0000e-06
  Last MAX-Density change    ...    3.2927e-05  Tolerance :   1.0000e-05
  Last RMS-Density change    ...    7.5409e-07  Tolerance :   1.0000e-06
  Last Orbital Gradient      ...    8.9982e-06  Tolerance :   5.0000e-05
  Last Orbital Rotation      ...    2.6483e-05  Tolerance :   5.0000e-05

             **** THE GBW FILE WAS UPDATED (config_4534.gbw) ****
             **** DENSITY FILE WAS UPDATED (config_4534.scfp) ****
             **** ENERGY FILE WAS UPDATED (config_4534.en.tmp) ****
             **** THE GBW FILE WAS UPDATED (config_4534.gbw) ****
             **** DENSITY FILE WAS UPDATED (config_4534.scfp) ****
----------------
ORBITAL ENERGIES
----------------

  NO   OCC          E(Eh)            E(eV) 
   0   2.0000     -88.970059     -2420.9984 
   1   2.0000     -88.965466     -2420.8734 
   2   2.0000     -10.331458      -281.1333 
   3   2.0000     -10.326430      -280.9964 
   4   2.0000     -10.318989      -280.7940 
   5   2.0000     -10.315724      -280.7051 
   6   2.0000     -10.312816      -280.6260 
   7   2.0000     -10.300759      -280.2979 
   8   2.0000     -10.300539      -280.2919 
   9   2.0000     -10.298314      -280.2314 
  10   2.0000     -10.296902      -280.1930 
  11   2.0000     -10.295025      -280.1419 
  12   2.0000     -10.290014      -280.0055 
  13   2.0000     -10.285735      -279.8891 
  14   2.0000     -10.281164      -279.7647 
  15   2.0000     -10.278795      -279.7002 
  16   2.0000      -8.084652      -219.9946 
  17   2.0000      -8.079630      -219.8579 
  18   2.0000      -6.043080      -164.4406 
  19   2.0000      -6.039377      -164.3398 
  20   2.0000      -6.038131      -164.3059 
  21   2.0000      -6.035295      -164.2287 
  22   2.0000      -6.034006      -164.1936 
  23   2.0000      -6.030641      -164.1021 
  24   2.0000      -1.009134       -27.4599 
  25   2.0000      -0.977523       -26.5998 
  26   2.0000      -0.909312       -24.7436 
  27   2.0000      -0.899382       -24.4734 
  28   2.0000      -0.871797       -23.7228 
  29   2.0000      -0.849253       -23.1094 
  30   2.0000      -0.844314       -22.9750 
  31   2.0000      -0.810539       -22.0559 
  32   2.0000      -0.786343       -21.3975 
  33   2.0000      -0.767087       -20.8735 
  34   2.0000      -0.708329       -19.2746 
  35   2.0000      -0.693244       -18.8641 
  36   2.0000      -0.692129       -18.8338 
  37   2.0000      -0.657792       -17.8994 
  38   2.0000      -0.643128       -17.5004 
  39   2.0000      -0.623428       -16.9643 
  40   2.0000      -0.589360       -16.0373 
  41   2.0000      -0.568704       -15.4752 
  42   2.0000      -0.561236       -15.2720 
  43   2.0000      -0.552659       -15.0386 
  44   2.0000      -0.533561       -14.5189 
  45   2.0000      -0.525014       -14.2864 
  46   2.0000      -0.519479       -14.1357 
  47   2.0000      -0.511729       -13.9249 
  48   2.0000      -0.501065       -13.6347 
  49   2.0000      -0.494451       -13.4547 
  50   2.0000      -0.487404       -13.2629 
  51   2.0000      -0.482552       -13.1309 
  52   2.0000      -0.466620       -12.6974 
  53   2.0000      -0.465957       -12.6793 
  54   2.0000      -0.453849       -12.3499 
  55   2.0000      -0.447839       -12.1863 
  56   2.0000      -0.442842       -12.0504 
  57   2.0000      -0.438906       -11.9432 
  58   2.0000      -0.432210       -11.7610 
  59   2.0000      -0.421114       -11.4591 
  60   2.0000      -0.419690       -11.4203 
  61   2.0000      -0.413249       -11.2451 
  62   2.0000      -0.411187       -11.1890 
  63   2.0000      -0.341169        -9.2837 
  64   2.0000      -0.335203        -9.1213 
  65   2.0000      -0.328064        -8.9271 
  66   2.0000      -0.298718        -8.1285 
  67   0.0000       0.029110         0.7921 
  68   0.0000       0.060926         1.6579 
  69   0.0000       0.113066         3.0767 
  70   0.0000       0.116883         3.1805 
  71   0.0000       0.128169         3.4876 
  72   0.0000       0.135524         3.6878 
  73   0.0000       0.149115         4.0576 
  74   0.0000       0.152447         4.1483 
  75   0.0000       0.167139         4.5481 
  76   0.0000       0.171202         4.6586 
  77   0.0000       0.175914         4.7869 
  78   0.0000       0.188171         5.1204 
  79   0.0000       0.191811         5.2194 
  80   0.0000       0.196669         5.3516 
  81   0.0000       0.202234         5.5031 
  82   0.0000       0.216942         5.9033 
  83   0.0000       0.217893         5.9292 
  84   0.0000       0.222842         6.0638 
  85   0.0000       0.231728         6.3056 
  86   0.0000       0.233253         6.3471 
  87   0.0000       0.235799         6.4164 
  88   0.0000       0.239420         6.5150 
  89   0.0000       0.245586         6.6827 
  90   0.0000       0.249382         6.7860 
  91   0.0000       0.254510         6.9256 
  92   0.0000       0.277310         7.5460 
  93   0.0000       0.301239         8.1971 
  94   0.0000       0.303334         8.2541 
  95   0.0000       0.312087         8.4923 
  96   0.0000       0.320009         8.7079 
  97   0.0000       0.331102         9.0097 
  98   0.0000       0.343567         9.3489 
  99   0.0000       0.356587         9.7032 
 100   0.0000       0.381392        10.3782 
 101   0.0000       0.387112        10.5338 
 102   0.0000       0.416907        11.3446 
 103   0.0000       0.425990        11.5918 
 104   0.0000       0.439079        11.9480 
 105   0.0000       0.449465        12.2306 
 106   0.0000       0.454876        12.3778 
 107   0.0000       0.475795        12.9470 
 108   0.0000       0.484312        13.1788 
 109   0.0000       0.492372        13.3981 
 110   0.0000       0.498888        13.5754 
 111   0.0000       0.501226        13.6391 
 112   0.0000       0.521547        14.1920 
 113   0.0000       0.523392        14.2422 
 114   0.0000       0.525782        14.3073 
 115   0.0000       0.532140        14.4803 
 116   0.0000       0.537378        14.6228 
 117   0.0000       0.549028        14.9398 
 118   0.0000       0.563456        15.3324 
 119   0.0000       0.564776        15.3683 
 120   0.0000       0.574698        15.6383 
 121   0.0000       0.583735        15.8842 
 122   0.0000       0.597552        16.2602 
 123   0.0000       0.600999        16.3540 
 124   0.0000       0.620120        16.8743 
 125   0.0000       0.632557        17.2127 
 126   0.0000       0.636175        17.3112 
 127   0.0000       0.645277        17.5589 
 128   0.0000       0.652163        17.7462 
 129   0.0000       0.658655        17.9229 
 130   0.0000       0.661498        18.0003 
 131   0.0000       0.678038        18.4503 
 132   0.0000       0.688497        18.7349 
 133   0.0000       0.690487        18.7891 
 134   0.0000       0.698590        19.0096 
 135   0.0000       0.707310        19.2469 
 136   0.0000       0.716651        19.5011 
 137   0.0000       0.722895        19.6710 
 138   0.0000       0.728311        19.8184 
 139   0.0000       0.730231        19.8706 
 140   0.0000       0.735949        20.0262 
 141   0.0000       0.743158        20.2224 
 142   0.0000       0.748528        20.3685 
 143   0.0000       0.752390        20.4736 
 144   0.0000       0.760567        20.6961 
 145   0.0000       0.766386        20.8544 
 146   0.0000       0.767332        20.8802 
 147   0.0000       0.769699        20.9446 
 148   0.0000       0.773327        21.0433 
 149   0.0000       0.781812        21.2742 
 150   0.0000       0.788051        21.4440 
 151   0.0000       0.792928        21.5767 
 152   0.0000       0.794217        21.6117 
 153   0.0000       0.796202        21.6657 
 154   0.0000       0.801495        21.8098 
 155   0.0000       0.803194        21.8560 
 156   0.0000       0.806894        21.9567 
 157   0.0000       0.813210        22.1286 
 158   0.0000       0.824116        22.4253 
 159   0.0000       0.826502        22.4903 
 160   0.0000       0.829112        22.5613 
 161   0.0000       0.832077        22.6420 
 162   0.0000       0.836452        22.7610 
 163   0.0000       0.845234        23.0000 
 164   0.0000       0.850402        23.1406 
 165   0.0000       0.853812        23.2334 
 166   0.0000       0.865354        23.5475 
 167   0.0000       0.876504        23.8509 
 168   0.0000       0.888033        24.1646 
 169   0.0000       0.900014        24.4906 
 170   0.0000       0.907922        24.7058 
 171   0.0000       0.918585        24.9960 
 172   0.0000       0.921265        25.0689 
 173   0.0000       0.933725        25.4080 
 174   0.0000       0.956370        26.0241 
 175   0.0000       0.970405        26.4061 
 176   0.0000       0.977743        26.6057 
 177   0.0000       1.001044        27.2398 
 178   0.0000       1.007780        27.4231 
 179   0.0000       1.037309        28.2266 
 180   0.0000       1.050423        28.5835 
 181   0.0000       1.058290        28.7975 
 182   0.0000       1.065132        28.9837 
 183   0.0000       1.086994        29.5786 
 184   0.0000       1.110808        30.2266 
 185   0.0000       1.117260        30.4022 
 186   0.0000       1.135261        30.8920 
 187   0.0000       1.150792        31.3146 
 188   0.0000       1.164098        31.6767 
 189   0.0000       1.168305        31.7912 
 190   0.0000       1.207397        32.8549 
 191   0.0000       1.229239        33.4493 
 192   0.0000       1.248003        33.9599 
 193   0.0000       1.250990        34.0412 
 194   0.0000       1.284822        34.9618 
 195   0.0000       1.300085        35.3771 
 196   0.0000       1.323602        36.0170 
 197   0.0000       1.326175        36.0871 
 198   0.0000       1.339546        36.4509 
 199   0.0000       1.369251        37.2592 
 200   0.0000       1.390514        37.8378 
 201   0.0000       1.405018        38.2325 
 202   0.0000       1.428145        38.8618 
 203   0.0000       1.438108        39.1329 
 204   0.0000       1.448664        39.4202 
 205   0.0000       1.480888        40.2970 
 206   0.0000       1.487465        40.4760 
 207   0.0000       1.517807        41.3016 
 208   0.0000       1.533834        41.7378 
 209   0.0000       1.560714        42.4692 
 210   0.0000       1.574591        42.8468 
 211   0.0000       1.609779        43.8043 
 212   0.0000       1.630006        44.3547 
 213   0.0000       1.636412        44.5290 
 214   0.0000       1.648116        44.8475 
 215   0.0000       1.654525        45.0219 
 216   0.0000       1.669218        45.4217 
 217   0.0000       1.684600        45.8403 
 218   0.0000       1.725288        46.9475 
 219   0.0000       1.747280        47.5459 
 220   0.0000       1.767376        48.0927 
 221   0.0000       1.786934        48.6249 
 222   0.0000       1.794137        48.8209 
 223   0.0000       1.806751        49.1642 
 224   0.0000       1.830741        49.8170 
 225   0.0000       1.836453        49.9724 
 226   0.0000       1.843322        50.1593 
 227   0.0000       1.847889        50.2836 
 228   0.0000       1.856248        50.5111 
 229   0.0000       1.859603        50.6024 
 230   0.0000       1.866444        50.7885 
 231   0.0000       1.874435        51.0060 
 232   0.0000       1.879016        51.1306 
 233   0.0000       1.880220        51.1634 
 234   0.0000       1.885477        51.3064 
 235   0.0000       1.894069        51.5402 
 236   0.0000       1.903315        51.7918 
 237   0.0000       1.909181        51.9515 
 238   0.0000       1.918935        52.2169 
 239   0.0000       1.930553        52.5330 
 240   0.0000       1.942930        52.8698 
 241   0.0000       1.960230        53.3406 
 242   0.0000       1.967234        53.5312 
 243   0.0000       1.976444        53.7818 
 244   0.0000       1.985383        54.0250 
 245   0.0000       1.987616        54.0858 
 246   0.0000       1.996450        54.3262 
 247   0.0000       2.001898        54.4744 
 248   0.0000       2.008711        54.6598 
 249   0.0000       2.024632        55.0930 
 250   0.0000       2.028269        55.1920 
 251   0.0000       2.052258        55.8448 
 252   0.0000       2.054758        55.9128 
 253   0.0000       2.070509        56.3414 
 254   0.0000       2.075914        56.4885 
 255   0.0000       2.086157        56.7672 
 256   0.0000       2.086892        56.7872 
 257   0.0000       2.124960        57.8231 
 258   0.0000       2.127122        57.8819 
 259   0.0000       2.132857        58.0380 
 260   0.0000       2.150622        58.5214 
 261   0.0000       2.163743        58.8784 
 262   0.0000       2.173384        59.1408 
 263   0.0000       2.204857        59.9972 
 264   0.0000       2.219228        60.3883 
 265   0.0000       2.235846        60.8405 
 266   0.0000       2.242412        61.0191 
 267   0.0000       2.278261        61.9946 
 268   0.0000       2.289970        62.3132 
 269   0.0000       2.306390        62.7601 
 270   0.0000       2.320828        63.1529 
 271   0.0000       2.338363        63.6301 
 272   0.0000       2.373786        64.5940 
 273   0.0000       2.385735        64.9192 
 274   0.0000       2.393753        65.1373 
 275   0.0000       2.411183        65.6116 
 276   0.0000       2.428377        66.0795 
 277   0.0000       2.435012        66.2600 
 278   0.0000       2.469267        67.1922 
 279   0.0000       2.484589        67.6091 
 280   0.0000       2.486538        67.6621 
 281   0.0000       2.495787        67.9138 
 282   0.0000       2.500877        68.0523 
 283   0.0000       2.510562        68.3159 
 284   0.0000       2.528437        68.8023 
 285   0.0000       2.542186        69.1764 
 286   0.0000       2.566688        69.8431 
 287   0.0000       2.576133        70.1001 
 288   0.0000       2.600060        70.7512 
 289   0.0000       2.605912        70.9105 
 290   0.0000       2.634989        71.7017 
 291   0.0000       2.645341        71.9834 
 292   0.0000       2.654104        72.2219 
 293   0.0000       2.674177        72.7681 
 294   0.0000       2.709761        73.7364 
 295   0.0000       2.743118        74.6440 
 296   0.0000       2.746895        74.7468 
 297   0.0000       2.751130        74.8620 
 298   0.0000       2.801277        76.2266 
 299   0.0000       2.807926        76.4076 
 300   0.0000       2.829094        76.9836 
 301   0.0000       2.848042        77.4992 
 302   0.0000       2.881234        78.4024 
 303   0.0000       2.903219        79.0006 
 304   0.0000       2.929523        79.7164 
 305   0.0000       2.965481        80.6948 
 306   0.0000       2.967187        80.7413 
 307   0.0000       2.991759        81.4099 
 308   0.0000       3.014059        82.0167 
 309   0.0000       3.038858        82.6915 
 310   0.0000       3.054485        83.1168 
 311   0.0000       3.070014        83.5393 
 312   0.0000       3.086924        83.9995 
 313   0.0000       3.102263        84.4169 
 314   0.0000       3.135499        85.3213 
 315   0.0000       3.142515        85.5122 
 316   0.0000       3.157852        85.9295 
 317   0.0000       3.208530        87.3085 
 318   0.0000       3.229286        87.8733 
 319   0.0000       3.242663        88.2373 
 320   0.0000       3.364612        91.5558 
 321   0.0000       3.435446        93.4832 

                    ********************************
                    * MULLIKEN POPULATION ANALYSIS *
                    ********************************

-----------------------
MULLIKEN ATOMIC CHARGES
-----------------------
   0 S :    0.121605
   1 C :   -0.143545
   2 C :   -0.044407
   3 C :    0.009681
   4 C :   -0.180936
   5 H :    0.042677
   6 C :    0.106050
   7 H :    0.029726
   8 H :    0.022043
   9 C :   -0.085356
  10 H :    0.020930
  11 H :    0.015180
  12 C :   -0.063831
  13 H :    0.030432
  14 H :    0.042450
  15 H :    0.037026
  16 S :    0.106071
  17 C :   -0.088739
  18 C :   -0.028565
  19 C :   -0.041288
  20 C :   -0.174918
  21 H :    0.016175
  22 C :    0.031874
  23 H :    0.012130
  24 H :    0.034485
  25 C :   -0.064458
  26 H :    0.030402
  27 H :    0.033613
  28 C :   -0.041572
  29 H :    0.028077
  30 H :    0.021813
  31 H :    0.057474
  32 H :    0.048761
  33 H :    0.058941
Sum of atomic charges:    0.0000000

--------------------------------
MULLIKEN REDUCED ORBITAL CHARGES
--------------------------------
  0 S s       :     5.850011  s :     5.850011
      pz      :     3.654455  p :     9.925760
      px      :     3.266343
      py      :     3.004962
      dz2     :     0.012933  d :     0.102624
      dxz     :     0.011674
      dyz     :     0.019260
      dx2y2   :     0.025026
      dxy     :     0.033732
  1 C s       :     3.199861  s :     3.199861
      pz      :     1.107736  p :     2.908138
      px      :     0.863808
      py      :     0.936594
      dz2     :     0.003606  d :     0.035547
      dxz     :     0.007057
      dyz     :     0.003352
      dx2y2   :     0.011651
      dxy     :     0.009881
  2 C s       :     3.033582  s :     3.033582
      pz      :     0.998690  p :     2.965633
      px      :     0.982658
      py      :     0.984286
      dz2     :     0.004455  d :     0.045192
      dxz     :     0.007807
      dyz     :     0.007069
      dx2y2   :     0.012591
      dxy     :     0.013269
  3 C s       :     3.197576  s :     3.197576
      pz      :     0.988128  p :     2.756475
      px      :     0.893970
      py      :     0.874377
      dz2     :     0.003099  d :     0.036268
      dxz     :     0.006575
      dyz     :     0.005114
      dx2y2   :     0.011998
      dxy     :     0.009481
  4 C s       :     3.059169  s :     3.059169
      pz      :     1.095705  p :     3.074389
      px      :     1.000108
      py      :     0.978577
      dz2     :     0.003997  d :     0.047378
      dxz     :     0.008054
      dyz     :     0.005619
      dx2y2   :     0.013757
      dxy     :     0.015951
  5 H s       :     0.934796  s :     0.934796
      pz      :     0.005513  p :     0.022527
      px      :     0.006196
      py      :     0.010818
  6 C s       :     2.957686  s :     2.957686
      pz      :     1.003162  p :     2.902413
      px      :     0.904373
      py      :     0.994878
      dz2     :     0.007378  d :     0.033851
      dxz     :     0.006771
      dyz     :     0.004405
      dx2y2   :     0.009908
      dxy     :     0.005389
  7 H s       :     0.945767  s :     0.945767
      pz      :     0.013424  p :     0.024507
      px      :     0.005505
      py      :     0.005578
  8 H s       :     0.956336  s :     0.956336
      pz      :     0.006281  p :     0.021620
      px      :     0.003765
      py      :     0.011574
  9 C s       :     3.039325  s :     3.039325
      pz      :     0.996206  p :     3.008334
      px      :     1.017033
      py      :     0.995094
      dz2     :     0.009403  d :     0.037697
      dxz     :     0.007581
      dyz     :     0.007701
      dx2y2   :     0.008857
      dxy     :     0.004155
 10 H s       :     0.955632  s :     0.955632
      pz      :     0.004531  p :     0.023438
      px      :     0.013462
      py      :     0.005445
 11 H s       :     0.960387  s :     0.960387
      pz      :     0.005918  p :     0.024433
      px      :     0.005833
      py      :     0.012682
 12 C s       :     3.036233  s :     3.036233
      pz      :     0.947501  p :     2.999538
      px      :     1.025731
      py      :     1.026305
      dz2     :     0.007404  d :     0.028060
      dxz     :     0.003365
      dyz     :     0.008668
      dx2y2   :     0.004155
      dxy     :     0.004467
 13 H s       :     0.944542  s :     0.944542
      pz      :     0.005899  p :     0.025026
      px      :     0.008509
      py      :     0.010618
 14 H s       :     0.934757  s :     0.934757
      pz      :     0.004374  p :     0.022793
      px      :     0.013322
      py      :     0.005097
 15 H s       :     0.940997  s :     0.940997
      pz      :     0.007045  p :     0.021977
      px      :     0.004804
      py      :     0.010128
 16 S s       :     5.845045  s :     5.845045
      pz      :     3.313750  p :     9.943653
      px      :     3.498139
      py      :     3.131763
      dz2     :     0.017066  d :     0.105231
      dxz     :     0.017951
      dyz     :     0.032440
      dx2y2   :     0.022266
      dxy     :     0.015509
 17 C s       :     3.151886  s :     3.151886
      pz      :     0.953769  p :     2.903787
      px      :     1.016407
      py      :     0.933611
      dz2     :     0.006816  d :     0.033066
      dxz     :     0.007880
      dyz     :     0.009607
      dx2y2   :     0.003812
      dxy     :     0.004951
 18 C s       :     3.189100  s :     3.189100
      pz      :     0.871190  p :     2.806976
      px      :     0.990085
      py      :     0.945701
      dz2     :     0.008009  d :     0.032489
      dxz     :     0.005911
      dyz     :     0.009345
      dx2y2   :     0.004873
      dxy     :     0.004351
 19 C s       :     3.077785  s :     3.077785
      pz      :     0.977684  p :     2.923775
      px      :     0.983069
      py      :     0.963021
      dz2     :     0.009786  d :     0.039728
      dxz     :     0.006859
      dyz     :     0.011196
      dx2y2   :     0.005571
      dxy     :     0.006315
 20 C s       :     3.093800  s :     3.093800
      pz      :     0.924730  p :     3.039351
      px      :     1.115538
      py      :     0.999082
      dz2     :     0.007750  d :     0.041767
      dxz     :     0.008722
      dyz     :     0.013644
      dx2y2   :     0.005651
      dxy     :     0.006000
 21 H s       :     0.959821  s :     0.959821
      pz      :     0.008654  p :     0.024004
      px      :     0.005623
      py      :     0.009727
 22 C s       :     2.982443  s :     2.982443
      pz      :     0.941843  p :     2.952256
      px      :     1.009248
      py      :     1.001165
      dz2     :     0.009528  d :     0.033426
      dxz     :     0.006453
      dyz     :     0.004927
      dx2y2   :     0.003190
      dxy     :     0.009329
 23 H s       :     0.963983  s :     0.963983
      pz      :     0.004451  p :     0.023888
      px      :     0.010267
      py      :     0.009170
 24 H s       :     0.944704  s :     0.944704
      pz      :     0.004352  p :     0.020811
      px      :     0.005665
      py      :     0.010794
 25 C s       :     3.066216  s :     3.066216
      pz      :     0.956834  p :     2.963046
      px      :     0.990917
      py      :     1.015295
      dz2     :     0.008198  d :     0.035196
      dxz     :     0.007025
      dyz     :     0.007032
      dx2y2   :     0.004744
      dxy     :     0.008197
 26 H s       :     0.947277  s :     0.947277
      pz      :     0.003799  p :     0.022321
      px      :     0.010674
      py      :     0.007848
 27 H s       :     0.944712  s :     0.944712
      pz      :     0.005463  p :     0.021675
      px      :     0.004507
      py      :     0.011705
 28 C s       :     3.035193  s :     3.035193
      pz      :     0.970702  p :     2.979123
      px      :     1.008922
      py      :     0.999499
      dz2     :     0.006468  d :     0.027256
      dxz     :     0.004891
      dyz     :     0.005722
      dx2y2   :     0.002709
      dxy     :     0.007465
 29 H s       :     0.948753  s :     0.948753
      pz      :     0.004667  p :     0.023171
      px      :     0.010334
      py      :     0.008170
 30 H s       :     0.952125  s :     0.952125
      pz      :     0.006350  p :     0.026062
      px      :     0.006440
      py      :     0.013272
 31 H s       :     0.920631  s :     0.920631
      pz      :     0.006587  p :     0.021896
      px      :     0.008393
      py      :     0.006916
 32 H s       :     0.927707  s :     0.927707
      pz      :     0.005478  p :     0.023532
      px      :     0.002804
      py      :     0.015251
 33 H s       :     0.916456  s :     0.916456
      pz      :     0.005152  p :     0.024604
      px      :     0.010653
      py      :     0.008799


                     *******************************
                     * LOEWDIN POPULATION ANALYSIS *
                     *******************************

----------------------
LOEWDIN ATOMIC CHARGES
----------------------
   0 S :    0.401212
   1 C :   -0.179025
   2 C :   -0.069855
   3 C :   -0.060716
   4 C :   -0.206013
   5 H :    0.043064
   6 C :   -0.018752
   7 H :    0.028744
   8 H :    0.031156
   9 C :   -0.043893
  10 H :    0.018781
  11 H :    0.022696
  12 C :   -0.072463
  13 H :    0.021390
  14 H :    0.036311
  15 H :    0.025976
  16 S :    0.404418
  17 C :   -0.186854
  18 C :   -0.068025
  19 C :   -0.052810
  20 C :   -0.201245
  21 H :    0.027845
  22 C :   -0.040722
  23 H :    0.025106
  24 H :    0.035221
  25 C :   -0.039789
  26 H :    0.019416
  27 H :    0.028628
  28 C :   -0.066307
  29 H :    0.028720
  30 H :    0.016489
  31 H :    0.036328
  32 H :    0.029246
  33 H :    0.025722

-------------------------------
LOEWDIN REDUCED ORBITAL CHARGES
-------------------------------
  0 S s       :     5.520066  s :     5.520066
      pz      :     3.616401  p :     9.952300
      px      :     3.303905
      py      :     3.031994
      dz2     :     0.015837  d :     0.126422
      dxz     :     0.012088
      dyz     :     0.024162
      dx2y2   :     0.030789
      dxy     :     0.043547
  1 C s       :     2.924471  s :     2.924471
      pz      :     1.103361  p :     3.169919
      px      :     1.005756
      py      :     1.060802
      dz2     :     0.006676  d :     0.084635
      dxz     :     0.014987
      dyz     :     0.006283
      dx2y2   :     0.031017
      dxy     :     0.025672
  2 C s       :     2.853942  s :     2.853942
      pz      :     0.982080  p :     3.102578
      px      :     1.049199
      py      :     1.071300
      dz2     :     0.010284  d :     0.113335
      dxz     :     0.014784
      dyz     :     0.016083
      dx2y2   :     0.035739
      dxy     :     0.036445
  3 C s       :     2.865192  s :     2.865192
      pz      :     1.008746  p :     3.100277
      px      :     1.051613
      py      :     1.039918
      dz2     :     0.006996  d :     0.095247
      dxz     :     0.014449
      dyz     :     0.010861
      dx2y2   :     0.034706
      dxy     :     0.028234
  4 C s       :     2.895963  s :     2.895963
      pz      :     1.071858  p :     3.195934
      px      :     1.092549
      py      :     1.031528
      dz2     :     0.008953  d :     0.114116
      dxz     :     0.016648
      dyz     :     0.012165
      dx2y2   :     0.036539
      dxy     :     0.039811
  5 H s       :     0.892134  s :     0.892134
      pz      :     0.015823  p :     0.064803
      px      :     0.018068
      py      :     0.030912
  6 C s       :     2.833152  s :     2.833152
      pz      :     1.068250  p :     3.101847
      px      :     0.988436
      py      :     1.045160
      dz2     :     0.018118  d :     0.083753
      dxz     :     0.015974
      dyz     :     0.012064
      dx2y2   :     0.024406
      dxy     :     0.013190
  7 H s       :     0.897084  s :     0.897084
      pz      :     0.039181  p :     0.074172
      px      :     0.018743
      py      :     0.016247
  8 H s       :     0.906222  s :     0.906222
      pz      :     0.016810  p :     0.062622
      px      :     0.011842
      py      :     0.033970
  9 C s       :     2.827962  s :     2.827962
      pz      :     1.026878  p :     3.124988
      px      :     1.053550
      py      :     1.044560
      dz2     :     0.024280  d :     0.090943
      dxz     :     0.016640
      dyz     :     0.017331
      dx2y2   :     0.021398
      dxy     :     0.011294
 10 H s       :     0.910742  s :     0.910742
      pz      :     0.016548  p :     0.070477
      px      :     0.038402
      py      :     0.015527
 11 H s       :     0.907731  s :     0.907731
      pz      :     0.017602  p :     0.069573
      px      :     0.015903
      py      :     0.036067
 12 C s       :     2.841720  s :     2.841720
      pz      :     1.013846  p :     3.160089
      px      :     1.070476
      py      :     1.075767
      dz2     :     0.019961  d :     0.070654
      dxz     :     0.007336
      dyz     :     0.021180
      dx2y2   :     0.010999
      dxy     :     0.011178
 13 H s       :     0.906070  s :     0.906070
      pz      :     0.018807  p :     0.072540
      px      :     0.023554
      py      :     0.030179
 14 H s       :     0.902717  s :     0.902717
      pz      :     0.011719  p :     0.060971
      px      :     0.035930
      py      :     0.013322
 15 H s       :     0.913649  s :     0.913649
      pz      :     0.021312  p :     0.060375
      px      :     0.011928
      py      :     0.027135
 16 S s       :     5.516982  s :     5.516982
      pz      :     3.350525  p :     9.949457
      px      :     3.466663
      py      :     3.132268
      dz2     :     0.019043  d :     0.129143
      dxz     :     0.020950
      dyz     :     0.041410
      dx2y2   :     0.027856
      dxy     :     0.019883
 17 C s       :     2.937643  s :     2.937643
      pz      :     1.069438  p :     3.171574
      px      :     1.067922
      py      :     1.034214
      dz2     :     0.019547  d :     0.077637
      dxz     :     0.017830
      dyz     :     0.022339
      dx2y2   :     0.007459
      dxy     :     0.010463
 18 C s       :     2.876343  s :     2.876343
      pz      :     1.051729  p :     3.106432
      px      :     1.017705
      py      :     1.036998
      dz2     :     0.024949  d :     0.085250
      dxz     :     0.014307
      dyz     :     0.024758
      dx2y2   :     0.010529
      dxy     :     0.010708
 19 C s       :     2.884350  s :     2.884350
      pz      :     1.034993  p :     3.071556
      px      :     1.004672
      py      :     1.031892
      dz2     :     0.026063  d :     0.096903
      dxz     :     0.014240
      dyz     :     0.029614
      dx2y2   :     0.012010
      dxy     :     0.014977
 20 C s       :     2.918689  s :     2.918689
      pz      :     1.024277  p :     3.182172
      px      :     1.096666
      py      :     1.061229
      dz2     :     0.019823  d :     0.100384
      dxz     :     0.018800
      dyz     :     0.034360
      dx2y2   :     0.013571
      dxy     :     0.013830
 21 H s       :     0.899532  s :     0.899532
      pz      :     0.026051  p :     0.072623
      px      :     0.017476
      py      :     0.029096
 22 C s       :     2.849618  s :     2.849618
      pz      :     1.001741  p :     3.109254
      px      :     1.046606
      py      :     1.060906
      dz2     :     0.023544  d :     0.081850
      dxz     :     0.016169
      dyz     :     0.012110
      dx2y2   :     0.007152
      dxy     :     0.022875
 23 H s       :     0.904685  s :     0.904685
      pz      :     0.014455  p :     0.070209
      px      :     0.030707
      py      :     0.025047
 24 H s       :     0.905859  s :     0.905859
      pz      :     0.013340  p :     0.058919
      px      :     0.016431
      py      :     0.029148
 25 C s       :     2.847940  s :     2.847940
      pz      :     1.012916  p :     3.107697
      px      :     1.035984
      py      :     1.058798
      dz2     :     0.019918  d :     0.084151
      dxz     :     0.016956
      dyz     :     0.015877
      dx2y2   :     0.011159
      dxy     :     0.020242
 26 H s       :     0.913226  s :     0.913226
      pz      :     0.013245  p :     0.067358
      px      :     0.032310
      py      :     0.021803
 27 H s       :     0.908042  s :     0.908042
      pz      :     0.016987  p :     0.063330
      px      :     0.013595
      py      :     0.032747
 28 C s       :     2.843348  s :     2.843348
      pz      :     1.030908  p :     3.153913
      px      :     1.062010
      py      :     1.060995
      dz2     :     0.016972  d :     0.069047
      dxz     :     0.012396
      dyz     :     0.013549
      dx2y2   :     0.006795
      dxy     :     0.019335
 29 H s       :     0.908576  s :     0.908576
      pz      :     0.013397  p :     0.062704
      px      :     0.029280
      py      :     0.020027
 30 H s       :     0.908282  s :     0.908282
      pz      :     0.019097  p :     0.075229
      px      :     0.018862
      py      :     0.037270
 31 H s       :     0.903152  s :     0.903152
      pz      :     0.019570  p :     0.060520
      px      :     0.022634
      py      :     0.018315
 32 H s       :     0.897242  s :     0.897242
      pz      :     0.017985  p :     0.073512
      px      :     0.011092
      py      :     0.044434
 33 H s       :     0.895675  s :     0.895675
      pz      :     0.016759  p :     0.078603
      px      :     0.032816
      py      :     0.029028


                      *****************************
                      * MAYER POPULATION ANALYSIS *
                      *****************************

  NA   - Mulliken gross atomic population
  ZA   - Total nuclear charge
  QA   - Mulliken gross atomic charge
  VA   - Mayer's total valence
  BVA  - Mayer's bonded valence
  FA   - Mayer's free valence

  ATOM       NA         ZA         QA         VA         BVA        FA
  0 S     15.8784    16.0000     0.1216     2.4634     2.4634     0.0000
  1 C      6.1435     6.0000    -0.1435     3.8612     3.8612    -0.0000
  2 C      6.0444     6.0000    -0.0444     4.0021     4.0021     0.0000
  3 C      5.9903     6.0000     0.0097     3.9206     3.9206    -0.0000
  4 C      6.1809     6.0000    -0.1809     3.9407     3.9407     0.0000
  5 H      0.9573     1.0000     0.0427     0.9989     0.9989    -0.0000
  6 C      5.8939     6.0000     0.1061     3.9530     3.9530     0.0000
  7 H      0.9703     1.0000     0.0297     0.9852     0.9852    -0.0000
  8 H      0.9780     1.0000     0.0220     0.9894     0.9894     0.0000
  9 C      6.0854     6.0000    -0.0854     4.0908     4.0908    -0.0000
 10 H      0.9791     1.0000     0.0209     0.9805     0.9805    -0.0000
 11 H      0.9848     1.0000     0.0152     0.9833     0.9833     0.0000
 12 C      6.0638     6.0000    -0.0638     3.9816     3.9816    -0.0000
 13 H      0.9696     1.0000     0.0304     0.9882     0.9882     0.0000
 14 H      0.9576     1.0000     0.0424     0.9896     0.9896    -0.0000
 15 H      0.9630     1.0000     0.0370     0.9869     0.9869    -0.0000
 16 S     15.8939    16.0000     0.1061     2.5026     2.5026     0.0000
 17 C      6.0887     6.0000    -0.0887     3.8287     3.8287    -0.0000
 18 C      6.0286     6.0000    -0.0286     3.9428     3.9428    -0.0000
 19 C      6.0413     6.0000    -0.0413     4.0005     4.0005     0.0000
 20 C      6.1749     6.0000    -0.1749     3.9110     3.9110     0.0000
 21 H      0.9838     1.0000     0.0162     0.9976     0.9976     0.0000
 22 C      5.9681     6.0000     0.0319     3.9673     3.9673     0.0000
 23 H      0.9879     1.0000     0.0121     0.9998     0.9998     0.0000
 24 H      0.9655     1.0000     0.0345     0.9848     0.9848     0.0000
 25 C      6.0645     6.0000    -0.0645     4.0465     4.0465    -0.0000
 26 H      0.9696     1.0000     0.0304     0.9819     0.9819     0.0000
 27 H      0.9664     1.0000     0.0336     0.9779     0.9779    -0.0000
 28 C      6.0416     6.0000    -0.0416     3.9934     3.9934     0.0000
 29 H      0.9719     1.0000     0.0281     0.9895     0.9895    -0.0000
 30 H      0.9782     1.0000     0.0218     0.9924     0.9924    -0.0000
 31 H      0.9425     1.0000     0.0575     0.9819     0.9819    -0.0000
 32 H      0.9512     1.0000     0.0488     1.0036     1.0036     0.0000
 33 H      0.9411     1.0000     0.0589     0.9975     0.9975    -0.0000

  Mayer bond orders larger than 0.100000
B(  0-S ,  1-C ) :   1.1243 B(  0-S ,  4-C ) :   1.1497 B(  1-C ,  2-C ) :   1.6518 
B(  1-C , 32-H ) :   0.9645 B(  2-C ,  3-C ) :   1.2233 B(  2-C ,  6-C ) :   1.0032 
B(  3-C ,  4-C ) :   1.5948 B(  3-C ,  5-H ) :   0.9831 B(  4-C , 20-C ) :   1.0520 
B(  6-C ,  7-H ) :   0.9392 B(  6-C ,  8-H ) :   0.9456 B(  6-C ,  9-C ) :   1.0762 
B(  9-C , 10-H ) :   0.9564 B(  9-C , 11-H ) :   0.9527 B(  9-C , 12-C ) :   1.0649 
B( 12-C , 13-H ) :   0.9749 B( 12-C , 14-H ) :   0.9733 B( 12-C , 15-H ) :   0.9774 
B( 16-S , 17-C ) :   1.1691 B( 16-S , 20-C ) :   1.1516 B( 17-C , 18-C ) :   1.5694 
B( 17-C , 20-C ) :   0.1138 B( 17-C , 33-H ) :   0.9704 B( 18-C , 19-C ) :   1.2741 
B( 18-C , 21-H ) :   0.9914 B( 19-C , 20-C ) :   1.5446 B( 19-C , 22-C ) :   1.0454 
B( 22-C , 23-H ) :   0.9305 B( 22-C , 24-H ) :   0.9371 B( 22-C , 25-C ) :   1.0534 
B( 25-C , 26-H ) :   0.9606 B( 25-C , 27-H ) :   0.9541 B( 25-C , 28-C ) :   1.0676 
B( 28-C , 29-H ) :   0.9762 B( 28-C , 30-H ) :   0.9768 B( 28-C , 31-H ) :   0.9734 


-------
TIMINGS
-------

Total SCF time: 0 days 0 hours 0 min 32 sec 

Total time                  ....      32.646 sec
Sum of individual times     ....      31.576 sec  ( 96.7%)

Fock matrix formation       ....      29.558 sec  ( 90.5%)
  XC integration            ....       2.046 sec  (  6.9% of F)
    Basis function eval.    ....       0.235 sec  ( 11.5% of XC)
    Density eval.           ....       0.164 sec  (  8.0% of XC)
    XC-Functional eval.     ....       0.193 sec  (  9.4% of XC)
    XC-Potential eval.      ....       0.188 sec  (  9.2% of XC)
Diagonalization             ....       0.170 sec  (  0.5%)
Density matrix formation    ....       0.025 sec  (  0.1%)
Population analysis         ....       0.082 sec  (  0.3%)
Initial guess               ....       0.202 sec  (  0.6%)
Orbital Transformation      ....       0.000 sec  (  0.0%)
Orbital Orthonormalization  ....       0.000 sec  (  0.0%)
DIIS solution               ....       0.156 sec  (  0.5%)
SOSCF solution              ....       0.152 sec  (  0.5%)
Grid generation             ....       1.231 sec  (  3.8%)


-------------------------------------------------------------------------------
                          DFT DISPERSION CORRECTION                            
                                                                               
                              DFTD3 V3.1  Rev 1                                
                              USING zero damping                               
-------------------------------------------------------------------------------
The omegaB97X-D3 functional is recognized. Fit by Chai et al.
Active option DFTDOPT                   ...         3   

molecular C6(AA) [au] = 14205.134538 


            DFT-D V3
 parameters
 s6 scaling factor         :     1.0000 
 rs6 scaling factor        :     1.2810 
 s8 scaling factor         :     1.0000 
 rs8 scaling factor        :     1.0940 
 Damping factor alpha6     :    14.0000 
 Damping factor alpha8     :    16.0000 
 ad hoc parameters k1-k3   :    16.0000     1.3333    -4.0000 

 Edisp/kcal,au: -8.970932924079  -0.014296090080 
 E6   /kcal   :  -4.140498901 
 E8   /kcal   :  -4.830434024 
 % E8         :  53.845392273 

-------------------------   ----------------
Dispersion correction           -0.014296090
-------------------------   ----------------


-------------------------   --------------------
FINAL SINGLE POINT ENERGY     -1339.871903713657
-------------------------   --------------------


                            ***************************************
                            *     ORCA property calculations      *
                            ***************************************

                                    ---------------------
                                    Active property flags
                                    ---------------------
   (+) Dipole Moment


------------------------------------------------------------------------------
                       ORCA ELECTRIC PROPERTIES CALCULATION
------------------------------------------------------------------------------

Dipole Moment Calculation                       ... on
Quadrupole Moment Calculation                   ... off
Polarizability Calculation                      ... off
GBWName                                         ... config_4534.gbw
Electron density file                           ... config_4534.scfp
The origin for moment calculation is the CENTER OF MASS  = (51.572901,  8.934933 144.580705)

-------------
DIPOLE MOMENT
-------------
                                X             Y             Z
Electronic contribution:    -15.35249      -0.31711     -13.24871
Nuclear contribution   :     15.70289       0.28734      13.67666
                        -----------------------------------------
Total Dipole Moment    :      0.35040      -0.02977       0.42794
                        -----------------------------------------
Magnitude (a.u.)       :      0.55390
Magnitude (Debye)      :      1.40790



--------------------
Rotational spectrum 
--------------------
 
Rotational constants in cm-1:     0.017194     0.008577     0.007343 
Rotational constants in MHz :   515.468200   257.140024   220.129437 

 Dipole components along the rotational axes: 
x,y,z [a.u.] :    -0.024879     0.434487     0.342645 
x,y,z [Debye]:    -0.063239     1.104377     0.870935 

 

Timings for individual modules:

Sum of individual times         ...       34.007 sec (=   0.567 min)
GTO integral calculation        ...        0.914 sec (=   0.015 min)   2.7 %
SCF iterations                  ...       33.092 sec (=   0.552 min)  97.3 %
                             ****ORCA TERMINATED NORMALLY****
TOTAL RUN TIME: 0 days 0 hours 0 minutes 34 seconds 859 msec
