
                                 *****************
                                 * O   R   C   A *
                                 *****************

           --- An Ab Initio, DFT and Semiempirical electronic structure package ---

                  #######################################################
                  #                        -***-                        #
                  #          Department of theory and spectroscopy      #
                  #               Directorship: Frank Neese             #
                  #        Max Planck Institute fuer Kohlenforschung    #
                  #                Kaiser Wilhelm Platz 1               #
                  #                 D-45470 Muelheim/Ruhr               #
                  #                      Germany                        #
                  #                                                     #
                  #                  All rights reserved                #
                  #                        -***-                        #
                  #######################################################


                         Program Version 4.2.1 -  RELEASE  -


 With contributions from (in alphabetic order):
   Daniel Aravena         : Magnetic Suceptibility
   Michael Atanasov       : Ab Initio Ligand Field Theory (pilot matlab implementation)
   Alexander A. Auer      : GIAO ZORA, VPT2
   Ute Becker             : Parallelization
   Giovanni Bistoni       : ED, misc. LED, open-shell LED, HFLD
   Martin Brehm           : Molecular dynamics
   Dmytro Bykov           : SCF Hessian
   Vijay G. Chilkuri      : MRCI spin determinant printing, contributions to CSF-ICE
   Dipayan Datta          : RHF DLPNO-CCSD density
   Achintya Kumar Dutta   : EOM-CC, STEOM-CC
   Dmitry Ganyushin       : Spin-Orbit,Spin-Spin,Magnetic field MRCI
   Miquel Garcia          : C-PCM Hessian, Gaussian charge scheme
   Yang Guo               : DLPNO-NEVPT2, CIM, IAO-localization
   Andreas Hansen         : Spin unrestricted coupled pair/coupled cluster methods
   Benjamin Helmich-Paris : CASSCF linear response (MC-RPA)
   Lee Huntington         : MR-EOM, pCC
   Robert Izsak           : Overlap fitted RIJCOSX, COSX-SCS-MP3, EOM
   Christian Kollmar      : KDIIS, OOCD, Brueckner-CCSD(T), CCSD density
   Simone Kossmann        : Meta GGA functionals, TD-DFT gradient, OOMP2, MP2 Hessian
   Martin Krupicka        : AUTO-CI
   Lucas Lang             : DCDCAS
   Dagmar Lenk            : GEPOL surface, SMD
   Dimitrios Liakos       : Extrapolation schemes; Compound Job, initial MDCI parallelization
   Dimitrios Manganas     : Further ROCIS development; embedding schemes
   Dimitrios Pantazis     : SARC Basis sets
   Taras Petrenko         : DFT Hessian,TD-DFT gradient, ASA, ECA, R-Raman, ABS, FL, XAS/XES, NRVS
   Peter Pinski           : DLPNO-MP2, DLPNO-MP2 Gradient
   Christoph Reimann      : Effective Core Potentials
   Marius Retegan         : Local ZFS, SOC
   Christoph Riplinger    : Optimizer, TS searches, QM/MM, DLPNO-CCSD(T), (RO)-DLPNO pert. Triples
   Tobias Risthaus        : Range-separated hybrids, TD-DFT gradient, RPA, STAB
   Michael Roemelt        : Original ROCIS implementation
   Masaaki Saitow         : Open-shell DLPNO-CCSD energy and density
   Barbara Sandhoefer     : DKH picture change effects
   Avijit Sen             : IP-ROCIS
   Kantharuban Sivalingam : CASSCF convergence, NEVPT2, FIC-MRCI
   Bernardo de Souza      : ESD, SOC TD-DFT
   Georgi Stoychev        : AutoAux, RI-MP2 NMR
   Willem Van den Heuvel  : Paramagnetic NMR
   Boris Wezisla          : Elementary symmetry handling
   Frank Wennmohs         : Technical directorship


 We gratefully acknowledge several colleagues who have allowed us to
 interface, adapt or use parts of their codes:
   Stefan Grimme, W. Hujo, H. Kruse,             : VdW corrections, initial TS optimization,
                  C. Bannwarth                     DFT functionals, gCP, sTDA/sTD-DF
   Ed Valeev, F. Pavosevic, A. Kumar             : LibInt (2-el integral package), F12 methods
   Garnet Chan, S. Sharma, J. Yang, R. Olivares  : DMRG
   Ulf Ekstrom                                   : XCFun DFT Library
   Mihaly Kallay                                 : mrcc  (arbitrary order and MRCC methods)
   Andreas Klamt, Michael Diedenhofen            : otool_cosmo (COSMO solvation model)
   Jiri Pittner, Ondrej Demel                    : Mk-CCSD
   Frank Weinhold                                : gennbo (NPA and NBO analysis)
   Christopher J. Cramer and Donald G. Truhlar   : smd solvation model
   Lars Goerigk                                  : TD-DFT with DH, B97 family of functionals
   V. Asgeirsson, H. Jonsson                     : NEB implementation
   FAccTs GmbH                                   : IRC, NEB, NEB-TS, Multilevel, MM, QM/MM, CI optimization
   S Lehtola, MJT Oliveira, MAL Marques          : LibXC Library


 Your calculation uses the libint2 library for the computation of 2-el integrals
 For citations please refer to: http://libint.valeyev.net

 Your ORCA version has been built with support for libXC version: 4.2.3
 For citations please refer to: https://tddft.org/programs/libxc/

 This ORCA versions uses:
   CBLAS   interface :  Fast vector & matrix operations
   LAPACKE interface :  Fast linear algebra routines
   SCALAPACK package :  Parallel linear algebra routines


Your calculation utilizes the atom-pairwise dispersion correction
with the zero-damping scheme (D30)
Cite in your paper:
S.Grimme, J.Antony, S.Ehrlich and H.Krieg, J.Chem.Phys., 132, (2010), 154104 
   

XCFun DFT library Copyright 2009-2010 Ulf Ekstrom and contributors.
See http://admol.org/xcfun for more information. This is free soft-
ware; see the source code for copying conditions. There is ABSOLUTELY
NO WARRANTY; not even for MERCHANTABILITY or FITNESS FOR A PARTICULAR
PURPOSE. For details see the documentation. Scientific users of this 
library should cite U. Ekstrom, L. Visscher, R. Bast, A. J. Thorvald-
sen and K. Ruud; J.Chem.Theor.Comp. 2010, DOI: 10.1021/ct100117s
XCFun Version 0.99 
----- Orbital basis set information -----
Your calculation utilizes the basis: def2-SVP
   F. Weigend and R. Ahlrichs, Phys. Chem. Chem. Phys. 7, 3297 (2005).

================================================================================
                                        WARNINGS
                       Please study these warnings very carefully!
================================================================================


INFO   : the flag for use of LIBINT has been found!

================================================================================
                                       INPUT FILE
================================================================================
NAME = config_6252.inp
|  1> ! wB97X-D3 SP def2-SVP
|  2> %pal
|  3> nprocs 16
|  4> end
|  5> 
|  6> * xyz 0 1
|  7> S 	 -39.0315 	 19.8401 	 81.9824 	 
|  8> C 	 -39.9288 	 18.6634 	 81.1351 	 
|  9> C 	 -40.796 	 19.2968 	 80.2008 	 
| 10> C 	 -40.647 	 20.7422 	 80.1672 	 
| 11> C 	 -39.7111 	 21.1329 	 81.075 	 
| 12> H 	 -41.1936 	 21.3897 	 79.5517 	 
| 13> C 	 -41.9248 	 18.6343 	 79.5272 	 
| 14> H 	 -41.6614 	 17.6081 	 79.5544 	 
| 15> H 	 -41.7508 	 18.8815 	 78.4298 	 
| 16> C 	 -43.2958 	 18.8845 	 80.1057 	 
| 17> H 	 -44.002 	 18.1796 	 79.7418 	 
| 18> H 	 -43.3636 	 18.6963 	 81.1958 	 
| 19> C 	 -43.8688 	 20.2808 	 79.8372 	 
| 20> H 	 -43.7546 	 20.6935 	 78.8516 	 
| 21> H 	 -44.8881 	 20.3042 	 79.9911 	 
| 22> H 	 -43.3604 	 20.9717 	 80.5262 	 
| 23> S 	 -37.6265 	 22.9285 	 81.223 	 
| 24> C 	 -37.9184 	 24.6499 	 81.3581 	 
| 25> C 	 -39.2093 	 24.8566 	 81.681 	 
| 26> C 	 -40.0365 	 23.6887 	 81.4404 	 
| 27> C 	 -39.303 	 22.5349 	 81.2359 	 
| 28> H 	 -39.5149 	 25.8442 	 81.9395 	 
| 29> C 	 -41.5822 	 23.8139 	 81.5735 	 
| 30> H 	 -41.7915 	 24.4048 	 82.4567 	 
| 31> H 	 -41.9526 	 22.8671 	 81.8846 	 
| 32> C 	 -42.2373 	 24.267 	 80.2268 	 
| 33> H 	 -42.2987 	 23.4429 	 79.4657 	 
| 34> H 	 -41.5978 	 25.073 	 79.834 	 
| 35> C 	 -43.6027 	 24.8783 	 80.368 	 
| 36> H 	 -43.7459 	 25.146 	 79.3058 	 
| 37> H 	 -43.5418 	 25.7289 	 81.1175 	 
| 38> H 	 -44.2689 	 24.0812 	 80.6022 	 
| 39> H 	 -39.9644 	 17.5826 	 81.3883 	 
| 40> H 	 -37.1415 	 25.4035 	 81.4138 	 
| 41> *
| 42> 
| 43>                          ****END OF INPUT****
================================================================================

                       ****************************
                       * Single Point Calculation *
                       ****************************

---------------------------------
CARTESIAN COORDINATES (ANGSTROEM)
---------------------------------
  S    -39.031500   19.840100   81.982400
  C    -39.928800   18.663400   81.135100
  C    -40.796000   19.296800   80.200800
  C    -40.647000   20.742200   80.167200
  C    -39.711100   21.132900   81.075000
  H    -41.193600   21.389700   79.551700
  C    -41.924800   18.634300   79.527200
  H    -41.661400   17.608100   79.554400
  H    -41.750800   18.881500   78.429800
  C    -43.295800   18.884500   80.105700
  H    -44.002000   18.179600   79.741800
  H    -43.363600   18.696300   81.195800
  C    -43.868800   20.280800   79.837200
  H    -43.754600   20.693500   78.851600
  H    -44.888100   20.304200   79.991100
  H    -43.360400   20.971700   80.526200
  S    -37.626500   22.928500   81.223000
  C    -37.918400   24.649900   81.358100
  C    -39.209300   24.856600   81.681000
  C    -40.036500   23.688700   81.440400
  C    -39.303000   22.534900   81.235900
  H    -39.514900   25.844200   81.939500
  C    -41.582200   23.813900   81.573500
  H    -41.791500   24.404800   82.456700
  H    -41.952600   22.867100   81.884600
  C    -42.237300   24.267000   80.226800
  H    -42.298700   23.442900   79.465700
  H    -41.597800   25.073000   79.834000
  C    -43.602700   24.878300   80.368000
  H    -43.745900   25.146000   79.305800
  H    -43.541800   25.728900   81.117500
  H    -44.268900   24.081200   80.602200
  H    -39.964400   17.582600   81.388300
  H    -37.141500   25.403500   81.413800

----------------------------
CARTESIAN COORDINATES (A.U.)
----------------------------
  NO LB      ZA    FRAG     MASS         X           Y           Z
   0 S    16.0000    0    32.060  -73.758846   37.492355  154.924284
   1 C     6.0000    0    12.011  -75.454497   35.268715  153.323119
   2 C     6.0000    0    12.011  -77.093267   36.465667  151.557548
   3 C     6.0000    0    12.011  -76.811698   39.197077  151.494053
   4 C     6.0000    0    12.011  -75.043103   39.935393  153.209546
   5 H     1.0000    0     1.008  -77.844622   40.420675  150.330926
   6 C     6.0000    0    12.011  -79.226390   35.213724  150.284628
   7 H     1.0000    0     1.008  -78.728636   33.274487  150.336029
   8 H     1.0000    0     1.008  -78.897578   35.680864  148.210843
   9 C     6.0000    0    12.011  -81.817205   35.686533  151.377835
  10 H     1.0000    0     1.008  -83.151729   34.354465  150.690163
  11 H     1.0000    0     1.008  -81.945328   35.330887  153.437825
  12 C     6.0000    0    12.011  -82.900018   38.325158  150.870443
  13 H     1.0000    0     1.008  -82.684211   39.105048  149.007929
  14 H     1.0000    0     1.008  -84.826216   38.369377  151.161272
  15 H     1.0000    0     1.008  -81.939281   39.630770  152.172465
  16 S    16.0000    0    32.060  -71.103780   43.328586  153.489226
  17 C     6.0000    0    12.011  -71.655391   46.581560  153.744528
  18 C     6.0000    0    12.011  -74.094839   46.972167  154.354720
  19 C     6.0000    0    12.011  -75.658020   44.765155  153.900052
  20 C     6.0000    0    12.011  -74.271906   42.584789  153.513603
  21 H     1.0000    0     1.008  -74.672339   48.838460  154.843215
  22 C     6.0000    0    12.011  -78.578970   45.001749  154.151575
  23 H     1.0000    0     1.008  -78.974490   46.118388  155.820581
  24 H     1.0000    0     1.008  -79.278925   43.212556  154.739469
  25 C     6.0000    0    12.011  -79.816930   45.857984  151.606681
  26 H     1.0000    0     1.008  -79.932959   44.300661  150.168410
  27 H     1.0000    0     1.008  -78.608450   47.381103  150.864396
  28 C     6.0000    0    12.011  -82.397162   47.013174  151.873510
  29 H     1.0000    0     1.008  -82.667770   47.519053  149.866243
  30 H     1.0000    0     1.008  -82.282077   48.620575  153.289860
  31 H     1.0000    0     1.008  -83.656097   45.506873  152.316084
  32 H     1.0000    0     1.008  -75.521771   33.226299  153.801598
  33 H     1.0000    0     1.008  -70.187263   48.005658  153.849786

--------------------------------
INTERNAL COORDINATES (ANGSTROEM)
--------------------------------
 S      0   0   0     0.000000000000     0.00000000     0.00000000
 C      1   0   0     1.705194261661     0.00000000     0.00000000
 C      2   1   0     1.423428217368   109.85663945     0.00000000
 C      3   2   1     1.453448010766   113.28071212     2.77305732
 C      4   3   2     1.361123117135   109.90876479   358.93098790
 H      4   3   2     1.047314690053   125.09313943   180.20877330
 C      3   2   1     1.472016525043   124.56026957   194.82230179
 H      7   3   2     1.059814059163   103.50075527   336.00376299
 H      7   3   2     1.138275274264   103.07400593   230.70914053
 C      7   3   2     1.508941115485   116.53059298    99.55411272
 H     10   7   3     1.062085523863   111.26787595   195.52155008
 H     10   7   3     1.108302345933   113.86047962   308.32819615
 C     10   7   3     1.532995414214   115.05493192    73.34359861
 H     13  10   7     1.074602386932   118.08121929    43.07264777
 H     13  10   7     1.031118451004   111.34743247   162.56762621
 H     13  10   7     1.100242868643   106.83170779   283.21748160
 S      5   4   3     2.755293182222   137.99683650   138.51765616
 C     17   5   4     1.751192616476   121.24082574    73.09151635
 C     18  17   5     1.346629908327   109.21839112    14.08400489
 C     19  18  17     1.451254150726   112.52725271   343.19102941
 C     20  19  18     1.382424298108   113.18847175    14.21757043
 H     19  18  17     1.065630034299   118.38095878   171.22900281
 C     20  19  18     1.556463664851   119.15261225   188.31696666
 H     23  20  19     1.083056572853   107.79026759   317.48464401
 H     23  20  19     1.063207228155   107.41921826   210.10459460
 C     23  20  19     1.564626635974   111.43769790    87.90308543
 H     26  23  20     1.123469616857   113.17594360    76.03516590
 H     26  23  20     1.101311985770   106.00980972   316.50804919
 C     26  23  20     1.502645097819   114.66945684   200.82695901
 H     29  26  23     1.104734524671    97.23936533   176.12626371
 H     29  26  23     1.135332294969   108.54697014    53.99418888
 H     29  26  23     1.064913372064   106.53561657   287.56585969
 H      2   1   3     1.110633260802   125.10790602   189.67495989
 H     18  17   5     1.083784600370   124.61010480   180.39216102

---------------------------
INTERNAL COORDINATES (A.U.)
---------------------------
 S      0   0   0     0.000000000000     0.00000000     0.00000000
 C      1   0   0     3.222350159672     0.00000000     0.00000000
 C      2   1   0     2.689889502122   109.85663945     0.00000000
 C      3   2   1     2.746618690241   113.28071212     2.77305732
 C      4   3   2     2.572149925935   109.90876479   358.93098790
 H      4   3   2     1.979137940232   125.09313943   180.20877330
 C      3   2   1     2.781708096938   124.56026957   194.82230179
 H      7   3   2     2.002758324698   103.50075527   336.00376299
 H      7   3   2     2.151028533372   103.07400593   230.70914053
 C      7   3   2     2.851485460480   116.53059298    99.55411272
 H     10   7   3     2.007050770904   111.26787595   195.52155008
 H     10   7   3     2.094387907395   113.86047962   308.32819615
 C     10   7   3     2.896941497421   115.05493192    73.34359861
 H     13  10   7     2.030704214160   118.08121929    43.07264777
 H     13  10   7     1.948531484030   111.34743247   162.56762621
 H     13  10   7     2.079157702535   106.83170779   283.21748160
 S      5   4   3     5.206749533060   137.99683650   138.51765616
 C     17   5   4     3.309274452885   121.24082574    73.09151635
 C     18  17   5     2.544761730485   109.21839112    14.08400489
 C     19  18  17     2.742472895589   112.52725271   343.19102941
 C     20  19  18     2.612403324303   113.18847175    14.21757043
 H     19  18  17     2.013748924906   118.38095878   171.22900281
 C     20  19  18     2.941290063967   119.15261225   188.31696666
 H     23  20  19     2.046680310235   107.79026759   317.48464401
 H     23  20  19     2.009170484818   107.41921826   210.10459460
 C     23  20  19     2.956715843830   111.43769790    87.90308543
 H     26  23  20     2.123049895640   113.17594360    76.03516590
 H     26  23  20     2.081178041110   106.00980972   316.50804919
 C     26  23  20     2.839587711358   114.66945684   200.82695901
 H     29  26  23     2.087645702316    97.23936533   176.12626371
 H     29  26  23     2.145467108488   108.54697014    53.99418888
 H     29  26  23     2.012394629551   106.53561657   287.56585969
 H      2   1   3     2.098792698140   125.10790602   189.67495989
 H     18  17   5     2.048056082861   124.61010480   180.39216102

---------------------
BASIS SET INFORMATION
---------------------
There are 3 groups of distinct atoms

 Group   1 Type S   : 10s7p1d contracted to 4s3p1d pattern {5311/511/1}
 Group   2 Type C   : 7s4p1d contracted to 3s2p1d pattern {511/31/1}
 Group   3 Type H   : 4s1p contracted to 2s1p pattern {31/1}

Atom   0S    basis set group =>   1
Atom   1C    basis set group =>   2
Atom   2C    basis set group =>   2
Atom   3C    basis set group =>   2
Atom   4C    basis set group =>   2
Atom   5H    basis set group =>   3
Atom   6C    basis set group =>   2
Atom   7H    basis set group =>   3
Atom   8H    basis set group =>   3
Atom   9C    basis set group =>   2
Atom  10H    basis set group =>   3
Atom  11H    basis set group =>   3
Atom  12C    basis set group =>   2
Atom  13H    basis set group =>   3
Atom  14H    basis set group =>   3
Atom  15H    basis set group =>   3
Atom  16S    basis set group =>   1
Atom  17C    basis set group =>   2
Atom  18C    basis set group =>   2
Atom  19C    basis set group =>   2
Atom  20C    basis set group =>   2
Atom  21H    basis set group =>   3
Atom  22C    basis set group =>   2
Atom  23H    basis set group =>   3
Atom  24H    basis set group =>   3
Atom  25C    basis set group =>   2
Atom  26H    basis set group =>   3
Atom  27H    basis set group =>   3
Atom  28C    basis set group =>   2
Atom  29H    basis set group =>   3
Atom  30H    basis set group =>   3
Atom  31H    basis set group =>   3
Atom  32H    basis set group =>   3
Atom  33H    basis set group =>   3


           ************************************************************
           *        Program running with 16 parallel MPI-processes    *
           *              working on a common directory               *
           ************************************************************
------------------------------------------------------------------------------
                           ORCA GTO INTEGRAL CALCULATION
------------------------------------------------------------------------------

                         BASIS SET STATISTICS AND STARTUP INFO

 # of primitive gaussian shells          ...  294
 # of primitive gaussian functions       ...  534
 # of contracted shells                  ...  154
 # of contracted basis functions         ...  322
 Highest angular momentum                ...    2
 Maximum contraction depth               ...    5
 Integral package used                   ... LIBINT
 Integral threshhold            Thresh   ...  1.000e-10
 Primitive cut-off              TCut     ...  1.000e-11


------------------------------ INTEGRAL EVALUATION ----------------------------


 * One electron integrals 
 Pre-screening matrix                    ... done
 Shell pair data                         ... done (   0.003 sec)



           ************************************************************
           *        Program running with 16 parallel MPI-processes    *
           *              working on a common directory               *
           ************************************************************
-------------------------------------------------------------------------------
                                 ORCA SCF
-------------------------------------------------------------------------------

------------
SCF SETTINGS
------------
Hamiltonian:
 Density Functional     Method          .... DFT(GTOs)
 Exchange Functional    Exchange        .... WB97X-D3
 Correlation Functional Correlation     .... WB97X-D3
 Gradients option       PostSCFGGA      .... off
 Hybrid DFT is turned on
   Fraction HF Exchange ScalHFX         ....  0.195728
   Scaling of DF-GGA-X  ScalDFX         ....  0.000000
   Scaling of DF-GGA-C  ScalDFC         ....  1.000000
   Scaling of DF-LDA-C  ScalLDAC        ....  1.000000
   Perturbative correction              ....  0.000000
   Density functional embedding theory  .... OFF
 Long-range corrected/Screened/Range-Separated Hybrid DFT is turned on
   Amount of maximum screened exact exchange              ....  0.804272
   Range separation parameter mu (erf(mu*r12)/r12)        ....  0.250000


General Settings:
 Integral files         IntName         .... config_6252
 Hartree-Fock type      HFTyp           .... RHF
 Total Charge           Charge          ....    0
 Multiplicity           Mult            ....    1
 Number of Electrons    NEL             ....  134
 Basis Dimension        Dim             ....  322
 Nuclear Repulsion      ENuc            ....   1308.2733043637 Eh

Convergence Acceleration:
 DIIS                   CNVDIIS         .... on
   Start iteration      DIISMaxIt       ....    12
   Startup error        DIISStart       ....  0.200000
   # of expansion vecs  DIISMaxEq       ....     5
   Bias factor          DIISBfac        ....   1.050
   Max. coefficient     DIISMaxC        ....  10.000
 Newton-Raphson         CNVNR           .... off
 SOSCF                  CNVSOSCF        .... on
   Start iteration      SOSCFMaxIt      ....   150
   Startup grad/error   SOSCFStart      ....  0.003300
 Level Shifting         CNVShift        .... on
   Level shift para.    LevelShift      ....    0.2500
   Turn off err/grad.   ShiftErr        ....    0.0010
 Zerner damping         CNVZerner       .... off
 Static damping         CNVDamp         .... on
   Fraction old density DampFac         ....    0.7000
   Max. Damping (<1)    DampMax         ....    0.9800
   Min. Damping (>=0)   DampMin         ....    0.0000
   Turn off err/grad.   DampErr         ....    0.1000
 Fernandez-Rico         CNVRico         .... off

SCF Procedure:
 Maximum # iterations   MaxIter         ....   125
 SCF integral mode      SCFMode         .... Direct
   Integral package                     .... LIBINT
 Reset frequency        DirectResetFreq ....    20
 Integral Threshold     Thresh          ....  1.000e-10 Eh
 Primitive CutOff       TCut            ....  1.000e-11 Eh

Convergence Tolerance:
 Convergence Check Mode ConvCheckMode   .... Total+1el-Energy
 Convergence forced     ConvForced      .... 0
 Energy Change          TolE            ....  1.000e-06 Eh
 1-El. energy change                    ....  1.000e-03 Eh
 Orbital Gradient       TolG            ....  5.000e-05
 Orbital Rotation angle TolX            ....  5.000e-05
 DIIS Error             TolErr          ....  1.000e-06


Diagonalization of the overlap matrix:
Smallest eigenvalue                        ... 6.909e-04
Time for diagonalization                   ...    0.015 sec
Threshold for overlap eigenvalues          ... 1.000e-08
Number of eigenvalues below threshold      ... 0
Time for construction of square roots      ...    0.031 sec
Total time needed                          ...    0.047 sec

-------------------
DFT GRID GENERATION
-------------------

General Integration Accuracy     IntAcc      ...  4.340
Radial Grid Type                 RadialGrid  ... Gauss-Chebyshev
Angular Grid (max. acc.)         AngularGrid ... Lebedev-110
Angular grid pruning method      GridPruning ... 3 (G Style)
Weight generation scheme         WeightScheme... Becke
Basis function cutoff            BFCut       ...    1.0000e-10
Integration weight cutoff        WCut        ...    1.0000e-14
Grids for H and He will be reduced by one unit

# of grid points (after initial pruning)     ...  41088 (   0.0 sec)
# of grid points (after weights+screening)   ...  36832 (   0.0 sec)
nearest neighbour list constructed           ...    0.0 sec
Grid point re-assignment to atoms done       ...    0.0 sec
Grid point division into batches done        ...    0.0 sec
Reduced shell lists constructed in    0.1 sec

Total number of grid points                  ...    36832
Total number of batches                      ...      590
Average number of points per batch           ...       62
Average number of grid points per atom       ...     1083
Average number of shells per batch           ...    74.34 (48.27%)
Average number of basis functions per batch  ...   146.29 (45.43%)
Average number of large shells per batch     ...    47.03 (63.26%)
Average number of large basis fcns per batch ...    97.45 (66.61%)
Maximum spatial batch extension              ...  16.98, 13.76, 13.24 au
Average spatial batch extension              ...   0.25,  0.21,  0.22 au

Time for grid setup =    0.173 sec

------------------------------
INITIAL GUESS: MODEL POTENTIAL
------------------------------
Loading Hartree-Fock densities                     ... done
Calculating cut-offs                               ... done
Setting up the integral package                    ... done
Initializing the effective Hamiltonian             ... done
Starting the Coulomb interaction                   ... done (   0.0 sec)
Reading the grid                                   ... done
Mapping shells                                     ... done
Starting the XC term evaluation                    ... done (   0.0 sec)
  promolecular density results
     # of electrons  =    134.007286876
     EX              =   -126.767924252
     EC              =     -4.629603888
     EX+EC           =   -131.397528140
Transforming the Hamiltonian                       ... done (   0.0 sec)
Diagonalizing the Hamiltonian                      ... done (   0.0 sec)
Back transforming the eigenvectors                 ... done (   0.0 sec)
Now organizing SCF variables                       ... done
                      ------------------
                      INITIAL GUESS DONE (   0.4 sec)
                      ------------------
--------------
SCF ITERATIONS
--------------
ITER       Energy         Delta-E        Max-DP      RMS-DP      [F,P]     Damp
               ***  Starting incremental Fock matrix formation  ***
  0  -1339.4074930242   0.000000000000 0.06760946  0.00160396  0.1689800 0.7000
  1  -1339.5970095976  -0.189516573360 0.04519827  0.00116924  0.1024784 0.7000
                               ***Turning on DIIS***
  2  -1339.6891105052  -0.092100907658 0.09234863  0.00220266  0.0536395 0.0000
  3  -1339.8290850158  -0.139974510588 0.04181586  0.00099143  0.0445682 0.0000
  4  -1339.8583715250  -0.029286509149 0.00766245  0.00020045  0.0078122 0.0000
                      *** Initiating the SOSCF procedure ***
                           *** Shutting down DIIS ***
                      *** Re-Reading the Fockian *** 
                      *** Removing any level shift *** 
ITER      Energy       Delta-E        Grad      Rot      Max-DP    RMS-DP
  5  -1339.85927362  -0.0009020953  0.001607  0.001607  0.002986  0.000101
               *** Restarting incremental Fock matrix formation ***
  6  -1339.85944990  -0.0001762811  0.001404  0.003823  0.003015  0.000063
  7  -1339.85950804  -0.0000581375  0.000774  0.004599  0.003741  0.000059
  8  -1339.85952384  -0.0000158058  0.000239  0.000519  0.000716  0.000017
  9  -1339.85952705  -0.0000032059  0.000105  0.000281  0.000243  0.000007
                 **** Energy Check signals convergence ****
              ***Rediagonalizing the Fockian in SOSCF/NRSCF***

               *****************************************************
               *                     SUCCESS                       *
               *           SCF CONVERGED AFTER  10 CYCLES          *
               *****************************************************

Setting up the final grid:

General Integration Accuracy     IntAcc      ...  4.670
Radial Grid Type                 RadialGrid  ... Gauss-Chebyshev
Angular Grid (max. acc.)         AngularGrid ... Lebedev-302
Angular grid pruning method      GridPruning ... 3 (G Style)
Weight generation scheme         WeightScheme... Becke
Basis function cutoff            BFCut       ...    1.0000e-10
Integration weight cutoff        WCut        ...    1.0000e-14
Grids for H and He will be reduced by one unit

# of grid points (after initial pruning)     ... 161752 (   0.0 sec)
# of grid points (after weights+screening)   ... 141973 (   0.2 sec)
nearest neighbour list constructed           ...    0.0 sec
Grid point re-assignment to atoms done       ...    0.0 sec
Grid point division into batches done        ...    0.5 sec
Reduced shell lists constructed in    0.6 sec

Total number of grid points                  ...   141973
Total number of batches                      ...     2236
Average number of points per batch           ...       63
Average number of grid points per atom       ...     4176
Average number of shells per batch           ...    67.13 (43.59%)
Average number of basis functions per batch  ...   132.38 (41.11%)
Average number of large shells per batch     ...    41.42 (61.69%)
Average number of large basis fcns per batch ...    85.35 (64.47%)
Maximum spatial batch extension              ...  15.64, 12.27, 13.53 au
Average spatial batch extension              ...   0.16,  0.14,  0.15 au

Final grid set up in    1.0 sec
Final integration                            ... done (   0.3 sec)
Change in XC energy                          ...     0.007214356
Integrated number of electrons               ...   133.999952010
Previous integrated no of electrons          ...   134.011392880

----------------
TOTAL SCF ENERGY
----------------

Total Energy       :        -1339.85231292 Eh          -36459.23499 eV

Components:
Nuclear Repulsion  :         1308.27330436 Eh           35599.92648 eV
Electronic Energy  :        -2648.12561729 Eh          -72059.16146 eV
One Electron Energy:        -4433.12244473 Eh         -120631.39450 eV
Two Electron Energy:         1784.99682744 Eh           48572.23304 eV

Virial components:
Potential Energy   :        -2671.69090715 Eh          -72700.40560 eV
Kinetic Energy     :         1331.83859422 Eh           36241.17061 eV
Virial Ratio       :            2.00601703


DFT components:
N(Alpha)           :       66.999976004764 electrons
N(Beta)            :       66.999976004764 electrons
N(Total)           :      133.999952009529 electrons
E(XC)              :      -94.321090955535 Eh       
DFET-embed. en.    :        0.000000000000 Eh       

---------------
SCF CONVERGENCE
---------------

  Last Energy change         ...   -2.3001e-07  Tolerance :   1.0000e-06
  Last MAX-Density change    ...    1.5192e-04  Tolerance :   1.0000e-05
  Last RMS-Density change    ...    3.0610e-06  Tolerance :   1.0000e-06
  Last Orbital Gradient      ...    6.3795e-05  Tolerance :   5.0000e-05
  Last Orbital Rotation      ...    1.6388e-04  Tolerance :   5.0000e-05

             **** THE GBW FILE WAS UPDATED (config_6252.gbw) ****
             **** DENSITY FILE WAS UPDATED (config_6252.scfp) ****
             **** ENERGY FILE WAS UPDATED (config_6252.en.tmp) ****
             **** THE GBW FILE WAS UPDATED (config_6252.gbw) ****
             **** DENSITY FILE WAS UPDATED (config_6252.scfp) ****
----------------
ORBITAL ENERGIES
----------------

  NO   OCC          E(Eh)            E(eV) 
   0   2.0000     -88.968609     -2420.9589 
   1   2.0000     -88.958483     -2420.6834 
   2   2.0000     -10.325814      -280.9797 
   3   2.0000     -10.322945      -280.9016 
   4   2.0000     -10.315369      -280.6955 
   5   2.0000     -10.311829      -280.5991 
   6   2.0000     -10.302628      -280.3488 
   7   2.0000     -10.300159      -280.2816 
   8   2.0000     -10.289786      -279.9993 
   9   2.0000     -10.288936      -279.9762 
  10   2.0000     -10.288355      -279.9604 
  11   2.0000     -10.288197      -279.9561 
  12   2.0000     -10.287351      -279.9331 
  13   2.0000     -10.287201      -279.9290 
  14   2.0000     -10.279741      -279.7260 
  15   2.0000     -10.271961      -279.5143 
  16   2.0000      -8.084348      -219.9863 
  17   2.0000      -8.074073      -219.7067 
  18   2.0000      -6.042866      -164.4348 
  19   2.0000      -6.038587      -164.3183 
  20   2.0000      -6.035185      -164.2257 
  21   2.0000      -6.032656      -164.1569 
  22   2.0000      -6.028469      -164.0430 
  23   2.0000      -6.024681      -163.9399 
  24   2.0000      -1.011407       -27.5218 
  25   2.0000      -0.988614       -26.9016 
  26   2.0000      -0.918149       -24.9841 
  27   2.0000      -0.906574       -24.6691 
  28   2.0000      -0.872829       -23.7509 
  29   2.0000      -0.854104       -23.2413 
  30   2.0000      -0.847325       -23.0569 
  31   2.0000      -0.823489       -22.4083 
  32   2.0000      -0.783263       -21.3137 
  33   2.0000      -0.768887       -20.9225 
  34   2.0000      -0.710780       -19.3413 
  35   2.0000      -0.696439       -18.9511 
  36   2.0000      -0.686706       -18.6862 
  37   2.0000      -0.662231       -18.0202 
  38   2.0000      -0.642573       -17.4853 
  39   2.0000      -0.620701       -16.8901 
  40   2.0000      -0.592168       -16.1137 
  41   2.0000      -0.571306       -15.5460 
  42   2.0000      -0.568571       -15.4716 
  43   2.0000      -0.557155       -15.1610 
  44   2.0000      -0.541501       -14.7350 
  45   2.0000      -0.532250       -14.4833 
  46   2.0000      -0.520479       -14.1630 
  47   2.0000      -0.514994       -14.0137 
  48   2.0000      -0.512204       -13.9378 
  49   2.0000      -0.498726       -13.5710 
  50   2.0000      -0.497815       -13.5462 
  51   2.0000      -0.481472       -13.1015 
  52   2.0000      -0.469025       -12.7628 
  53   2.0000      -0.462815       -12.5938 
  54   2.0000      -0.462232       -12.5780 
  55   2.0000      -0.450685       -12.2638 
  56   2.0000      -0.445449       -12.1213 
  57   2.0000      -0.439470       -11.9586 
  58   2.0000      -0.433668       -11.8007 
  59   2.0000      -0.419831       -11.4242 
  60   2.0000      -0.416982       -11.3466 
  61   2.0000      -0.412260       -11.2182 
  62   2.0000      -0.407173       -11.0798 
  63   2.0000      -0.352928        -9.6037 
  64   2.0000      -0.327491        -8.9115 
  65   2.0000      -0.323469        -8.8021 
  66   2.0000      -0.292959        -7.9718 
  67   0.0000       0.039744         1.0815 
  68   0.0000       0.073899         2.0109 
  69   0.0000       0.117656         3.2016 
  70   0.0000       0.120497         3.2789 
  71   0.0000       0.127615         3.4726 
  72   0.0000       0.136172         3.7054 
  73   0.0000       0.151267         4.1162 
  74   0.0000       0.156446         4.2571 
  75   0.0000       0.160845         4.3768 
  76   0.0000       0.172765         4.7012 
  77   0.0000       0.175359         4.7718 
  78   0.0000       0.184523         5.0211 
  79   0.0000       0.187711         5.1079 
  80   0.0000       0.199273         5.4225 
  81   0.0000       0.202825         5.5191 
  82   0.0000       0.213975         5.8225 
  83   0.0000       0.222902         6.0655 
  84   0.0000       0.228257         6.2112 
  85   0.0000       0.230729         6.2785 
  86   0.0000       0.234072         6.3694 
  87   0.0000       0.239134         6.5072 
  88   0.0000       0.247781         6.7425 
  89   0.0000       0.252063         6.8590 
  90   0.0000       0.257685         7.0120 
  91   0.0000       0.277854         7.5608 
  92   0.0000       0.298268         8.1163 
  93   0.0000       0.307266         8.3611 
  94   0.0000       0.317970         8.6524 
  95   0.0000       0.320962         8.7338 
  96   0.0000       0.336457         9.1555 
  97   0.0000       0.344311         9.3692 
  98   0.0000       0.356039         9.6883 
  99   0.0000       0.360960         9.8222 
 100   0.0000       0.393213        10.6999 
 101   0.0000       0.401317        10.9204 
 102   0.0000       0.409490        11.1428 
 103   0.0000       0.421958        11.4821 
 104   0.0000       0.427491        11.6326 
 105   0.0000       0.449785        12.2393 
 106   0.0000       0.456741        12.4286 
 107   0.0000       0.485490        13.2109 
 108   0.0000       0.491067        13.3626 
 109   0.0000       0.494496        13.4559 
 110   0.0000       0.502201        13.6656 
 111   0.0000       0.509245        13.8573 
 112   0.0000       0.514903        14.0112 
 113   0.0000       0.529489        14.4081 
 114   0.0000       0.539256        14.6739 
 115   0.0000       0.543017        14.7763 
 116   0.0000       0.554993        15.1021 
 117   0.0000       0.563651        15.3377 
 118   0.0000       0.572482        15.5780 
 119   0.0000       0.576514        15.6877 
 120   0.0000       0.582291        15.8449 
 121   0.0000       0.588256        16.0073 
 122   0.0000       0.598530        16.2868 
 123   0.0000       0.605928        16.4881 
 124   0.0000       0.609262        16.5789 
 125   0.0000       0.624259        16.9869 
 126   0.0000       0.631048        17.1717 
 127   0.0000       0.642420        17.4811 
 128   0.0000       0.658837        17.9279 
 129   0.0000       0.659522        17.9465 
 130   0.0000       0.664647        18.0860 
 131   0.0000       0.689935        18.7741 
 132   0.0000       0.690324        18.7847 
 133   0.0000       0.704415        19.1681 
 134   0.0000       0.714039        19.4300 
 135   0.0000       0.716711        19.5027 
 136   0.0000       0.721748        19.6398 
 137   0.0000       0.727432        19.7944 
 138   0.0000       0.737104        20.0576 
 139   0.0000       0.742065        20.1926 
 140   0.0000       0.746947        20.3254 
 141   0.0000       0.751327        20.4446 
 142   0.0000       0.754094        20.5200 
 143   0.0000       0.763814        20.7844 
 144   0.0000       0.768877        20.9222 
 145   0.0000       0.774354        21.0712 
 146   0.0000       0.778853        21.1937 
 147   0.0000       0.782623        21.2962 
 148   0.0000       0.787635        21.4326 
 149   0.0000       0.790529        21.5114 
 150   0.0000       0.791499        21.5378 
 151   0.0000       0.794712        21.6252 
 152   0.0000       0.796353        21.6699 
 153   0.0000       0.806027        21.9331 
 154   0.0000       0.810118        22.0444 
 155   0.0000       0.813883        22.1469 
 156   0.0000       0.819434        22.2979 
 157   0.0000       0.827577        22.5195 
 158   0.0000       0.836822        22.7711 
 159   0.0000       0.838866        22.8267 
 160   0.0000       0.840738        22.8776 
 161   0.0000       0.845638        23.0110 
 162   0.0000       0.855609        23.2823 
 163   0.0000       0.861427        23.4406 
 164   0.0000       0.868223        23.6255 
 165   0.0000       0.882181        24.0054 
 166   0.0000       0.893101        24.3025 
 167   0.0000       0.900023        24.4909 
 168   0.0000       0.912826        24.8393 
 169   0.0000       0.915984        24.9252 
 170   0.0000       0.925748        25.1909 
 171   0.0000       0.940611        25.5953 
 172   0.0000       0.947592        25.7853 
 173   0.0000       0.957519        26.0554 
 174   0.0000       0.967607        26.3299 
 175   0.0000       0.978326        26.6216 
 176   0.0000       0.985437        26.8151 
 177   0.0000       1.005947        27.3732 
 178   0.0000       1.020463        27.7682 
 179   0.0000       1.029544        28.0153 
 180   0.0000       1.049326        28.5536 
 181   0.0000       1.061245        28.8780 
 182   0.0000       1.085556        29.5395 
 183   0.0000       1.098430        29.8898 
 184   0.0000       1.124857        30.6089 
 185   0.0000       1.143734        31.1226 
 186   0.0000       1.161224        31.5985 
 187   0.0000       1.169523        31.8243 
 188   0.0000       1.187666        32.3180 
 189   0.0000       1.192727        32.4558 
 190   0.0000       1.212247        32.9869 
 191   0.0000       1.216031        33.0899 
 192   0.0000       1.232133        33.5280 
 193   0.0000       1.270026        34.5592 
 194   0.0000       1.281369        34.8678 
 195   0.0000       1.298407        35.3314 
 196   0.0000       1.326040        36.0834 
 197   0.0000       1.336235        36.3608 
 198   0.0000       1.339937        36.4615 
 199   0.0000       1.368542        37.2399 
 200   0.0000       1.381642        37.5964 
 201   0.0000       1.399403        38.0797 
 202   0.0000       1.432706        38.9859 
 203   0.0000       1.443561        39.2813 
 204   0.0000       1.465699        39.8837 
 205   0.0000       1.489150        40.5218 
 206   0.0000       1.491439        40.5841 
 207   0.0000       1.520610        41.3779 
 208   0.0000       1.539855        41.9016 
 209   0.0000       1.549518        42.1645 
 210   0.0000       1.588271        43.2190 
 211   0.0000       1.598443        43.4958 
 212   0.0000       1.635566        44.5060 
 213   0.0000       1.650277        44.9063 
 214   0.0000       1.663532        45.2670 
 215   0.0000       1.681504        45.7560 
 216   0.0000       1.707876        46.4737 
 217   0.0000       1.715464        46.6801 
 218   0.0000       1.751952        47.6730 
 219   0.0000       1.777121        48.3579 
 220   0.0000       1.782401        48.5016 
 221   0.0000       1.796553        48.8867 
 222   0.0000       1.809117        49.2286 
 223   0.0000       1.817252        49.4500 
 224   0.0000       1.820574        49.5403 
 225   0.0000       1.836436        49.9720 
 226   0.0000       1.843586        50.1665 
 227   0.0000       1.851414        50.3795 
 228   0.0000       1.859365        50.5959 
 229   0.0000       1.862803        50.6894 
 230   0.0000       1.869524        50.8723 
 231   0.0000       1.876293        51.0565 
 232   0.0000       1.889745        51.4226 
 233   0.0000       1.893521        51.5253 
 234   0.0000       1.907412        51.9033 
 235   0.0000       1.909940        51.9721 
 236   0.0000       1.920814        52.2680 
 237   0.0000       1.923525        52.3418 
 238   0.0000       1.929076        52.4928 
 239   0.0000       1.945940        52.9517 
 240   0.0000       1.957210        53.2584 
 241   0.0000       1.957551        53.2677 
 242   0.0000       1.965781        53.4916 
 243   0.0000       1.990569        54.1661 
 244   0.0000       1.994039        54.2606 
 245   0.0000       1.995857        54.3100 
 246   0.0000       2.016460        54.8707 
 247   0.0000       2.023506        55.0624 
 248   0.0000       2.032096        55.2961 
 249   0.0000       2.046102        55.6773 
 250   0.0000       2.056133        55.9502 
 251   0.0000       2.060604        56.0719 
 252   0.0000       2.074590        56.4525 
 253   0.0000       2.088517        56.8314 
 254   0.0000       2.099248        57.1234 
 255   0.0000       2.114920        57.5499 
 256   0.0000       2.128990        57.9328 
 257   0.0000       2.134063        58.0708 
 258   0.0000       2.144329        58.3502 
 259   0.0000       2.150085        58.5068 
 260   0.0000       2.172091        59.1056 
 261   0.0000       2.198995        59.8377 
 262   0.0000       2.204523        59.9881 
 263   0.0000       2.216515        60.3144 
 264   0.0000       2.239265        60.9335 
 265   0.0000       2.267699        61.7072 
 266   0.0000       2.275586        61.9218 
 267   0.0000       2.286306        62.2135 
 268   0.0000       2.312497        62.9263 
 269   0.0000       2.329136        63.3790 
 270   0.0000       2.339935        63.6729 
 271   0.0000       2.353757        64.0490 
 272   0.0000       2.368323        64.4453 
 273   0.0000       2.400116        65.3105 
 274   0.0000       2.417486        65.7831 
 275   0.0000       2.425227        65.9938 
 276   0.0000       2.440977        66.4224 
 277   0.0000       2.446268        66.5663 
 278   0.0000       2.466750        67.1237 
 279   0.0000       2.471738        67.2594 
 280   0.0000       2.498103        67.9768 
 281   0.0000       2.501046        68.0569 
 282   0.0000       2.531874        68.8958 
 283   0.0000       2.534668        68.9718 
 284   0.0000       2.550322        69.3978 
 285   0.0000       2.564856        69.7933 
 286   0.0000       2.567215        69.8575 
 287   0.0000       2.579134        70.1818 
 288   0.0000       2.589682        70.4688 
 289   0.0000       2.593467        70.5718 
 290   0.0000       2.645831        71.9967 
 291   0.0000       2.663907        72.4886 
 292   0.0000       2.682691        72.9997 
 293   0.0000       2.707423        73.6727 
 294   0.0000       2.729662        74.2779 
 295   0.0000       2.738981        74.5315 
 296   0.0000       2.758118        75.0522 
 297   0.0000       2.795081        76.0580 
 298   0.0000       2.812835        76.5411 
 299   0.0000       2.839703        77.2722 
 300   0.0000       2.844477        77.4022 
 301   0.0000       2.908994        79.1577 
 302   0.0000       2.924038        79.5671 
 303   0.0000       2.939653        79.9920 
 304   0.0000       2.946980        80.1914 
 305   0.0000       2.952205        80.3336 
 306   0.0000       2.980051        81.0913 
 307   0.0000       3.016483        82.0827 
 308   0.0000       3.027195        82.3742 
 309   0.0000       3.051226        83.0281 
 310   0.0000       3.077513        83.7434 
 311   0.0000       3.083493        83.9061 
 312   0.0000       3.106036        84.5195 
 313   0.0000       3.146230        85.6133 
 314   0.0000       3.148844        85.6844 
 315   0.0000       3.176937        86.4489 
 316   0.0000       3.195774        86.9614 
 317   0.0000       3.222800        87.6969 
 318   0.0000       3.234709        88.0209 
 319   0.0000       3.276976        89.1711 
 320   0.0000       3.399206        92.4971 
 321   0.0000       3.468467        94.3818 

                    ********************************
                    * MULLIKEN POPULATION ANALYSIS *
                    ********************************

-----------------------
MULLIKEN ATOMIC CHARGES
-----------------------
   0 S :    0.132955
   1 C :   -0.132110
   2 C :   -0.133867
   3 C :    0.046591
   4 C :   -0.125663
   5 H :   -0.023878
   6 C :    0.076316
   7 H :   -0.001688
   8 H :    0.039812
   9 C :   -0.028069
  10 H :    0.018561
  11 H :    0.030547
  12 C :   -0.040862
  13 H :    0.020983
  14 H :    0.015238
  15 H :    0.037976
  16 S :    0.093531
  17 C :   -0.090980
  18 C :   -0.012380
  19 C :   -0.076739
  20 C :   -0.139960
  21 H :    0.008979
  22 C :    0.098319
  23 H :    0.018869
  24 H :    0.006913
  25 C :   -0.122829
  26 H :    0.038158
  27 H :    0.031177
  28 C :   -0.023392
  29 H :    0.037546
  30 H :    0.049746
  31 H :    0.027495
  32 H :    0.066003
  33 H :    0.056702
Sum of atomic charges:   -0.0000000

--------------------------------
MULLIKEN REDUCED ORBITAL CHARGES
--------------------------------
  0 S s       :     5.835895  s :     5.835895
      pz      :     3.454297  p :     9.913245
      px      :     3.516947
      py      :     2.942001
      dz2     :     0.012295  d :     0.117904
      dxz     :     0.013488
      dyz     :     0.039780
      dx2y2   :     0.015954
      dxy     :     0.036388
  1 C s       :     3.182030  s :     3.182030
      pz      :     1.000944  p :     2.917135
      px      :     1.035865
      py      :     0.880326
      dz2     :     0.006762  d :     0.032945
      dxz     :     0.004179
      dyz     :     0.008081
      dx2y2   :     0.006656
      dxy     :     0.007268
  2 C s       :     3.108767  s :     3.108767
      pz      :     0.992635  p :     2.980986
      px      :     0.983922
      py      :     1.004428
      dz2     :     0.008567  d :     0.044114
      dxz     :     0.006196
      dyz     :     0.008121
      dx2y2   :     0.010949
      dxy     :     0.010281
  3 C s       :     3.198894  s :     3.198894
      pz      :     0.911068  p :     2.720924
      px      :     0.925964
      py      :     0.883892
      dz2     :     0.005894  d :     0.033591
      dxz     :     0.004872
      dyz     :     0.007882
      dx2y2   :     0.007966
      dxy     :     0.006977
  4 C s       :     3.033991  s :     3.033991
      pz      :     1.014178  p :     3.045273
      px      :     1.038563
      py      :     0.992532
      dz2     :     0.009408  d :     0.046400
      dxz     :     0.004950
      dyz     :     0.012579
      dx2y2   :     0.009137
      dxy     :     0.010325
  5 H s       :     0.997426  s :     0.997426
      pz      :     0.009133  p :     0.026451
      px      :     0.008447
      py      :     0.008872
  6 C s       :     2.943221  s :     2.943221
      pz      :     1.009540  p :     2.942609
      px      :     0.928348
      py      :     1.004722
      dz2     :     0.009770  d :     0.037854
      dxz     :     0.007833
      dyz     :     0.002621
      dx2y2   :     0.010142
      dxy     :     0.007488
  7 H s       :     0.976759  s :     0.976759
      pz      :     0.005621  p :     0.024929
      px      :     0.005066
      py      :     0.014242
  8 H s       :     0.938165  s :     0.938165
      pz      :     0.013036  p :     0.022024
      px      :     0.003700
      py      :     0.005287
  9 C s       :     3.004531  s :     3.004531
      pz      :     1.012649  p :     2.986315
      px      :     0.967193
      py      :     1.006473
      dz2     :     0.009214  d :     0.037223
      dxz     :     0.005138
      dyz     :     0.004791
      dx2y2   :     0.007411
      dxy     :     0.010669
 10 H s       :     0.957110  s :     0.957110
      pz      :     0.006971  p :     0.024329
      px      :     0.008521
      py      :     0.008836
 11 H s       :     0.947337  s :     0.947337
      pz      :     0.014032  p :     0.022116
      px      :     0.003608
      py      :     0.004476
 12 C s       :     2.976701  s :     2.976701
      pz      :     1.023982  p :     3.034770
      px      :     1.017366
      py      :     0.993421
      dz2     :     0.006343  d :     0.029391
      dxz     :     0.002107
      dyz     :     0.007849
      dx2y2   :     0.008511
      dxy     :     0.004582
 13 H s       :     0.954387  s :     0.954387
      pz      :     0.013313  p :     0.024629
      px      :     0.005724
      py      :     0.005592
 14 H s       :     0.958073  s :     0.958073
      pz      :     0.006616  p :     0.026689
      px      :     0.015106
      py      :     0.004967
 15 H s       :     0.937836  s :     0.937836
      pz      :     0.008882  p :     0.024188
      px      :     0.007371
      py      :     0.007935
 16 S s       :     5.846288  s :     5.846288
      pz      :     3.685067  p :     9.948919
      px      :     3.196771
      py      :     3.067082
      dz2     :     0.012664  d :     0.111262
      dxz     :     0.015701
      dyz     :     0.018690
      dx2y2   :     0.044708
      dxy     :     0.019498
 17 C s       :     3.148293  s :     3.148293
      pz      :     1.084182  p :     2.906233
      px      :     0.967525
      py      :     0.854527
      dz2     :     0.003724  d :     0.036453
      dxz     :     0.006435
      dyz     :     0.004422
      dx2y2   :     0.011292
      dxy     :     0.010580
 18 C s       :     3.164084  s :     3.164084
      pz      :     0.995782  p :     2.812377
      px      :     0.922807
      py      :     0.893788
      dz2     :     0.003281  d :     0.035919
      dxz     :     0.007939
      dyz     :     0.003509
      dx2y2   :     0.011549
      dxy     :     0.009641
 19 C s       :     3.085611  s :     3.085611
      pz      :     1.002664  p :     2.949240
      px      :     0.991110
      py      :     0.955466
      dz2     :     0.003459  d :     0.041889
      dxz     :     0.006551
      dyz     :     0.007042
      dx2y2   :     0.010531
      dxy     :     0.014306
 20 C s       :     3.055396  s :     3.055396
      pz      :     1.115825  p :     3.040006
      px      :     0.906853
      py      :     1.017327
      dz2     :     0.003817  d :     0.044558
      dxz     :     0.007046
      dyz     :     0.007412
      dx2y2   :     0.015601
      dxy     :     0.010683
 21 H s       :     0.965957  s :     0.965957
      pz      :     0.006003  p :     0.025064
      px      :     0.004857
      py      :     0.014205
 22 C s       :     2.927876  s :     2.927876
      pz      :     0.983904  p :     2.940097
      px      :     0.927421
      py      :     1.028773
      dz2     :     0.007233  d :     0.033708
      dxz     :     0.006244
      dyz     :     0.007847
      dx2y2   :     0.007838
      dxy     :     0.004546
 23 H s       :     0.957473  s :     0.957473
      pz      :     0.010678  p :     0.023658
      px      :     0.004393
      py      :     0.008587
 24 H s       :     0.968108  s :     0.968108
      pz      :     0.005527  p :     0.024979
      px      :     0.005531
      py      :     0.013921
 25 C s       :     3.088843  s :     3.088843
      pz      :     0.993746  p :     2.996311
      px      :     0.992188
      py      :     1.010376
      dz2     :     0.006058  d :     0.037676
      dxz     :     0.007526
      dyz     :     0.009307
      dx2y2   :     0.006204
      dxy     :     0.008581
 26 H s       :     0.940723  s :     0.940723
      pz      :     0.007856  p :     0.021120
      px      :     0.003791
      py      :     0.009473
 27 H s       :     0.946870  s :     0.946870
      pz      :     0.004997  p :     0.021953
      px      :     0.007672
      py      :     0.009284
 28 C s       :     3.011338  s :     3.011338
      pz      :     0.995073  p :     2.982806
      px      :     0.987912
      py      :     0.999820
      dz2     :     0.007522  d :     0.029248
      dxz     :     0.003032
      dyz     :     0.005303
      dx2y2   :     0.004946
      dxy     :     0.008445
 29 H s       :     0.938317  s :     0.938317
      pz      :     0.013099  p :     0.024137
      px      :     0.005918
      py      :     0.005120
 30 H s       :     0.928672  s :     0.928672
      pz      :     0.008137  p :     0.021582
      px      :     0.003837
      py      :     0.009608
 31 H s       :     0.947584  s :     0.947584
      pz      :     0.005531  p :     0.024922
      px      :     0.009177
      py      :     0.010213
 32 H s       :     0.911394  s :     0.911394
      pz      :     0.004284  p :     0.022603
      px      :     0.003995
      py      :     0.014324
 33 H s       :     0.919109  s :     0.919109
      pz      :     0.005118  p :     0.024189
      px      :     0.010039
      py      :     0.009033


                     *******************************
                     * LOEWDIN POPULATION ANALYSIS *
                     *******************************

----------------------
LOEWDIN ATOMIC CHARGES
----------------------
   0 S :    0.440835
   1 C :   -0.229763
   2 C :   -0.058011
   3 C :   -0.054111
   4 C :   -0.199028
   5 H :    0.021139
   6 C :   -0.043130
   7 H :    0.024485
   8 H :    0.042277
   9 C :   -0.033815
  10 H :    0.020705
  11 H :    0.033867
  12 C :   -0.062083
  13 H :    0.020690
  14 H :    0.017203
  15 H :    0.026905
  16 S :    0.405159
  17 C :   -0.181205
  18 C :   -0.069005
  19 C :   -0.056359
  20 C :   -0.206564
  21 H :    0.026909
  22 C :   -0.032076
  23 H :    0.030012
  24 H :    0.020396
  25 C :   -0.044467
  26 H :    0.025421
  27 H :    0.023554
  28 C :   -0.065070
  29 H :    0.034234
  30 H :    0.033859
  31 H :    0.018853
  32 H :    0.037854
  33 H :    0.030330

-------------------------------
LOEWDIN REDUCED ORBITAL CHARGES
-------------------------------
  0 S s       :     5.473820  s :     5.473820
      pz      :     3.461577  p :     9.937072
      px      :     3.515669
      py      :     2.959825
      dz2     :     0.013091  d :     0.148273
      dxz     :     0.014825
      dyz     :     0.052004
      dx2y2   :     0.020951
      dxy     :     0.047401
  1 C s       :     2.942156  s :     2.942156
      pz      :     1.074468  p :     3.209410
      px      :     1.092410
      py      :     1.042531
      dz2     :     0.014544  d :     0.078197
      dxz     :     0.011178
      dyz     :     0.019897
      dx2y2   :     0.015576
      dxy     :     0.017003
  2 C s       :     2.867974  s :     2.867974
      pz      :     1.013272  p :     3.081719
      px      :     1.023478
      py      :     1.044969
      dz2     :     0.018136  d :     0.108318
      dxz     :     0.016206
      dyz     :     0.019509
      dx2y2   :     0.028914
      dxy     :     0.025551
  3 C s       :     2.855398  s :     2.855398
      pz      :     1.038223  p :     3.107836
      px      :     1.033871
      py      :     1.035743
      dz2     :     0.014061  d :     0.090877
      dxz     :     0.015028
      dyz     :     0.020443
      dx2y2   :     0.022611
      dxy     :     0.018734
  4 C s       :     2.896399  s :     2.896399
      pz      :     1.078255  p :     3.191037
      px      :     1.085071
      py      :     1.027711
      dz2     :     0.020458  d :     0.111592
      dxz     :     0.013341
      dyz     :     0.029096
      dx2y2   :     0.022457
      dxy     :     0.026240
  5 H s       :     0.901108  s :     0.901108
      pz      :     0.026584  p :     0.077753
      px      :     0.024417
      py      :     0.026751
  6 C s       :     2.816267  s :     2.816267
      pz      :     1.044277  p :     3.130533
      px      :     1.020943
      py      :     1.065313
      dz2     :     0.024902  d :     0.096330
      dxz     :     0.019659
      dyz     :     0.006363
      dx2y2   :     0.026722
      dxy     :     0.018683
  7 H s       :     0.901487  s :     0.901487
      pz      :     0.016236  p :     0.074028
      px      :     0.017150
      py      :     0.040642
  8 H s       :     0.897129  s :     0.897129
      pz      :     0.035729  p :     0.060595
      px      :     0.011702
      py      :     0.013163
  9 C s       :     2.822442  s :     2.822442
      pz      :     1.061926  p :     3.120149
      px      :     1.020255
      py      :     1.037968
      dz2     :     0.023874  d :     0.091224
      dxz     :     0.012669
      dyz     :     0.010311
      dx2y2   :     0.019126
      dxy     :     0.025244
 10 H s       :     0.906512  s :     0.906512
      pz      :     0.019040  p :     0.072783
      px      :     0.026668
      py      :     0.027075
 11 H s       :     0.902408  s :     0.902408
      pz      :     0.038526  p :     0.063725
      px      :     0.011637
      py      :     0.013562
 12 C s       :     2.813820  s :     2.813820
      pz      :     1.072066  p :     3.173580
      px      :     1.071765
      py      :     1.029749
      dz2     :     0.016801  d :     0.074683
      dxz     :     0.005525
      dyz     :     0.018787
      dx2y2   :     0.021274
      dxy     :     0.012296
 13 H s       :     0.909792  s :     0.909792
      pz      :     0.036449  p :     0.069518
      px      :     0.014898
      py      :     0.018171
 14 H s       :     0.904899  s :     0.904899
      pz      :     0.018238  p :     0.077897
      px      :     0.042391
      py      :     0.017269
 15 H s       :     0.907047  s :     0.907047
      pz      :     0.023417  p :     0.066048
      px      :     0.018857
      py      :     0.023774
 16 S s       :     5.492984  s :     5.492984
      pz      :     3.640617  p :     9.963623
      px      :     3.241267
      py      :     3.081739
      dz2     :     0.015861  d :     0.138235
      dxz     :     0.017809
      dyz     :     0.022007
      dx2y2   :     0.058496
      dxy     :     0.024062
 17 C s       :     2.926340  s :     2.926340
      pz      :     1.078872  p :     3.168996
      px      :     1.093367
      py      :     0.996757
      dz2     :     0.007084  d :     0.085870
      dxz     :     0.013256
      dyz     :     0.008583
      dx2y2   :     0.029800
      dxy     :     0.027147
 18 C s       :     2.862564  s :     2.862564
      pz      :     1.007588  p :     3.112254
      px      :     1.068386
      py      :     1.036280
      dz2     :     0.006793  d :     0.094187
      dxz     :     0.018021
      dyz     :     0.007278
      dx2y2   :     0.032534
      dxy     :     0.029562
 19 C s       :     2.869559  s :     2.869559
      pz      :     0.994938  p :     3.083550
      px      :     1.038750
      py      :     1.049862
      dz2     :     0.007865  d :     0.103250
      dxz     :     0.011812
      dyz     :     0.014773
      dx2y2   :     0.029454
      dxy     :     0.039345
 20 C s       :     2.901849  s :     2.901849
      pz      :     1.095919  p :     3.196836
      px      :     1.028205
      py      :     1.072711
      dz2     :     0.007996  d :     0.107879
      dxz     :     0.014247
      dyz     :     0.015183
      dx2y2   :     0.041352
      dxy     :     0.029102
 21 H s       :     0.899796  s :     0.899796
      pz      :     0.017786  p :     0.073294
      px      :     0.015321
      py      :     0.040188
 22 C s       :     2.829393  s :     2.829393
      pz      :     1.036101  p :     3.118844
      px      :     0.997341
      py      :     1.085402
      dz2     :     0.018636  d :     0.083840
      dxz     :     0.014832
      dyz     :     0.019117
      dx2y2   :     0.020579
      dxy     :     0.010676
 23 H s       :     0.900454  s :     0.900454
      pz      :     0.032342  p :     0.069534
      px      :     0.014425
      py      :     0.022767
 24 H s       :     0.905256  s :     0.905256
      pz      :     0.017863  p :     0.074348
      px      :     0.018539
      py      :     0.037946
 25 C s       :     2.844292  s :     2.844292
      pz      :     1.024763  p :     3.110401
      px      :     1.035664
      py      :     1.049974
      dz2     :     0.014790  d :     0.089774
      dxz     :     0.017331
      dyz     :     0.022393
      dx2y2   :     0.014141
      dxy     :     0.021119
 26 H s       :     0.913305  s :     0.913305
      pz      :     0.023561  p :     0.061275
      px      :     0.012010
      py      :     0.025703
 27 H s       :     0.910985  s :     0.910985
      pz      :     0.015691  p :     0.065461
      px      :     0.022635
      py      :     0.027134
 28 C s       :     2.837969  s :     2.837969
      pz      :     1.047000  p :     3.153035
      px      :     1.050397
      py      :     1.055638
      dz2     :     0.019147  d :     0.074066
      dxz     :     0.006718
      dyz     :     0.014729
      dx2y2   :     0.012382
      dxy     :     0.021089
 29 H s       :     0.899442  s :     0.899442
      pz      :     0.037204  p :     0.066324
      px      :     0.016085
      py      :     0.013035
 30 H s       :     0.907195  s :     0.907195
      pz      :     0.022008  p :     0.058946
      px      :     0.011131
      py      :     0.025808
 31 H s       :     0.909075  s :     0.909075
      pz      :     0.014576  p :     0.072073
      px      :     0.027188
      py      :     0.030309
 32 H s       :     0.891528  s :     0.891528
      pz      :     0.013650  p :     0.070617
      px      :     0.013959
      py      :     0.043009
 33 H s       :     0.895583  s :     0.895583
      pz      :     0.016947  p :     0.074087
      px      :     0.027953
      py      :     0.029188


                      *****************************
                      * MAYER POPULATION ANALYSIS *
                      *****************************

  NA   - Mulliken gross atomic population
  ZA   - Total nuclear charge
  QA   - Mulliken gross atomic charge
  VA   - Mayer's total valence
  BVA  - Mayer's bonded valence
  FA   - Mayer's free valence

  ATOM       NA         ZA         QA         VA         BVA        FA
  0 S     15.8670    16.0000     0.1330     2.5175     2.5175    -0.0000
  1 C      6.1321     6.0000    -0.1321     3.8162     3.8162     0.0000
  2 C      6.1339     6.0000    -0.1339     4.0319     4.0319    -0.0000
  3 C      5.9534     6.0000     0.0466     3.9230     3.9230     0.0000
  4 C      6.1257     6.0000    -0.1257     3.8792     3.8792     0.0000
  5 H      1.0239     1.0000    -0.0239     1.0166     1.0166    -0.0000
  6 C      5.9237     6.0000     0.0763     3.9661     3.9661     0.0000
  7 H      1.0017     1.0000    -0.0017     0.9943     0.9943     0.0000
  8 H      0.9602     1.0000     0.0398     0.9842     0.9842     0.0000
  9 C      6.0281     6.0000    -0.0281     4.0740     4.0740     0.0000
 10 H      0.9814     1.0000     0.0186     0.9779     0.9779     0.0000
 11 H      0.9695     1.0000     0.0305     0.9825     0.9825     0.0000
 12 C      6.0409     6.0000    -0.0409     4.0122     4.0122     0.0000
 13 H      0.9790     1.0000     0.0210     0.9922     0.9922     0.0000
 14 H      0.9848     1.0000     0.0152     0.9909     0.9909    -0.0000
 15 H      0.9620     1.0000     0.0380     1.0028     1.0028     0.0000
 16 S     15.9065    16.0000     0.0935     2.4762     2.4762    -0.0000
 17 C      6.0910     6.0000    -0.0910     3.8500     3.8500     0.0000
 18 C      6.0124     6.0000    -0.0124     3.9415     3.9415     0.0000
 19 C      6.0767     6.0000    -0.0767     4.0307     4.0307    -0.0000
 20 C      6.1400     6.0000    -0.1400     3.9073     3.9073    -0.0000
 21 H      0.9910     1.0000     0.0090     0.9975     0.9975     0.0000
 22 C      5.9017     6.0000     0.0983     3.9447     3.9447    -0.0000
 23 H      0.9811     1.0000     0.0189     0.9962     0.9962    -0.0000
 24 H      0.9931     1.0000     0.0069     0.9974     0.9974     0.0000
 25 C      6.1228     6.0000    -0.1228     4.0700     4.0700    -0.0000
 26 H      0.9618     1.0000     0.0382     0.9799     0.9799    -0.0000
 27 H      0.9688     1.0000     0.0312     0.9800     0.9800    -0.0000
 28 C      6.0234     6.0000    -0.0234     3.9861     3.9861    -0.0000
 29 H      0.9625     1.0000     0.0375     0.9883     0.9883    -0.0000
 30 H      0.9503     1.0000     0.0497     0.9888     0.9888    -0.0000
 31 H      0.9725     1.0000     0.0275     0.9915     0.9915    -0.0000
 32 H      0.9340     1.0000     0.0660     1.0002     1.0002     0.0000
 33 H      0.9433     1.0000     0.0567     0.9947     0.9947     0.0000

  Mayer bond orders larger than 0.100000
B(  0-S ,  1-C ) :   1.1429 B(  0-S ,  4-C ) :   1.1763 B(  1-C ,  2-C ) :   1.5861 
B(  1-C , 32-H ) :   0.9636 B(  2-C ,  3-C ) :   1.2418 B(  2-C ,  6-C ) :   1.0436 
B(  3-C ,  4-C ) :   1.5483 B(  3-C ,  5-H ) :   1.0075 B(  4-C , 20-C ) :   1.0140 
B(  6-C ,  7-H ) :   0.9268 B(  6-C ,  8-H ) :   0.9331 B(  6-C ,  9-C ) :   1.0646 
B(  9-C , 10-H ) :   0.9546 B(  9-C , 11-H ) :   0.9500 B(  9-C , 12-C ) :   1.0849 
B( 12-C , 13-H ) :   0.9730 B( 12-C , 14-H ) :   0.9674 B( 12-C , 15-H ) :   0.9704 
B( 16-S , 17-C ) :   1.1456 B( 16-S , 20-C ) :   1.1406 B( 17-C , 18-C ) :   1.6326 
B( 17-C , 33-H ) :   0.9672 B( 18-C , 19-C ) :   1.2194 B( 18-C , 21-H ) :   0.9931 
B( 19-C , 20-C ) :   1.6183 B( 19-C , 22-C ) :   1.0376 B( 22-C , 23-H ) :   0.9423 
B( 22-C , 24-H ) :   0.9285 B( 22-C , 25-C ) :   1.0436 B( 25-C , 26-H ) :   0.9491 
B( 25-C , 27-H ) :   0.9643 B( 25-C , 28-C ) :   1.0780 B( 28-C , 29-H ) :   0.9741 
B( 28-C , 30-H ) :   0.9744 B( 28-C , 31-H ) :   0.9738 

-------
TIMINGS
-------

Total SCF time: 0 days 0 hours 0 min 28 sec 

Total time                  ....      28.940 sec
Sum of individual times     ....      28.038 sec  ( 96.9%)

Fock matrix formation       ....      26.259 sec  ( 90.7%)
  XC integration            ....       1.812 sec  (  6.9% of F)
    Basis function eval.    ....       0.220 sec  ( 12.1% of XC)
    Density eval.           ....       0.170 sec  (  9.4% of XC)
    XC-Functional eval.     ....       0.173 sec  (  9.6% of XC)
    XC-Potential eval.      ....       0.197 sec  ( 10.9% of XC)
Diagonalization             ....       0.140 sec  (  0.5%)
Density matrix formation    ....       0.018 sec  (  0.1%)
Population analysis         ....       0.047 sec  (  0.2%)
Initial guess               ....       0.198 sec  (  0.7%)
Orbital Transformation      ....       0.000 sec  (  0.0%)
Orbital Orthonormalization  ....       0.000 sec  (  0.0%)
DIIS solution               ....       0.148 sec  (  0.5%)
SOSCF solution              ....       0.102 sec  (  0.4%)
Grid generation             ....       1.126 sec  (  3.9%)


-------------------------------------------------------------------------------
                          DFT DISPERSION CORRECTION                            
                                                                               
                              DFTD3 V3.1  Rev 1                                
                              USING zero damping                               
-------------------------------------------------------------------------------
The omegaB97X-D3 functional is recognized. Fit by Chai et al.
Active option DFTDOPT                   ...         3   

molecular C6(AA) [au] = 14142.702043 


            DFT-D V3
 parameters
 s6 scaling factor         :     1.0000 
 rs6 scaling factor        :     1.2810 
 s8 scaling factor         :     1.0000 
 rs8 scaling factor        :     1.0940 
 Damping factor alpha6     :    14.0000 
 Damping factor alpha8     :    16.0000 
 ad hoc parameters k1-k3   :    16.0000     1.3333    -4.0000 

 Edisp/kcal,au: -9.922383698700  -0.015812323240 
 E6   /kcal   :  -4.672798511 
 E8   /kcal   :  -5.249585188 
 % E8         :  52.906492507 

-------------------------   ----------------
Dispersion correction           -0.015812323
-------------------------   ----------------


-------------------------   --------------------
FINAL SINGLE POINT ENERGY     -1339.868125247433
-------------------------   --------------------


                            ***************************************
                            *     ORCA property calculations      *
                            ***************************************

                                    ---------------------
                                    Active property flags
                                    ---------------------
   (+) Dipole Moment


------------------------------------------------------------------------------
                       ORCA ELECTRIC PROPERTIES CALCULATION
------------------------------------------------------------------------------

Dipole Moment Calculation                       ... on
Quadrupole Moment Calculation                   ... off
Polarizability Calculation                      ... off
GBWName                                         ... config_6252.gbw
Electron density file                           ... config_6252.scfp
The origin for moment calculation is the CENTER OF MASS  = (-76.357721, 41.126438 152.908950)

-------------
DIPOLE MOMENT
-------------
                                X             Y             Z
Electronic contribution:     29.86326      -4.19900       8.64016
Nuclear contribution   :    -30.58356       4.30159      -8.70501
                        -----------------------------------------
Total Dipole Moment    :     -0.72031       0.10259      -0.06485
                        -----------------------------------------
Magnitude (a.u.)       :      0.73046
Magnitude (Debye)      :      1.85669



--------------------
Rotational spectrum 
--------------------
 
Rotational constants in cm-1:     0.016563     0.011336     0.007145 
Rotational constants in MHz :   496.550160   339.857309   214.194337 

 Dipole components along the rotational axes: 
x,y,z [a.u.] :    -0.290007    -0.658592     0.125409 
x,y,z [Debye]:    -0.737140    -1.674009     0.318763 

 

Timings for individual modules:

Sum of individual times         ...       30.021 sec (=   0.500 min)
GTO integral calculation        ...        0.717 sec (=   0.012 min)   2.4 %
SCF iterations                  ...       29.303 sec (=   0.488 min)  97.6 %
                             ****ORCA TERMINATED NORMALLY****
TOTAL RUN TIME: 0 days 0 hours 0 minutes 30 seconds 707 msec
