
                                 *****************
                                 * O   R   C   A *
                                 *****************

           --- An Ab Initio, DFT and Semiempirical electronic structure package ---

                  #######################################################
                  #                        -***-                        #
                  #          Department of theory and spectroscopy      #
                  #               Directorship: Frank Neese             #
                  #        Max Planck Institute fuer Kohlenforschung    #
                  #                Kaiser Wilhelm Platz 1               #
                  #                 D-45470 Muelheim/Ruhr               #
                  #                      Germany                        #
                  #                                                     #
                  #                  All rights reserved                #
                  #                        -***-                        #
                  #######################################################


                         Program Version 4.2.1 -  RELEASE  -


 With contributions from (in alphabetic order):
   Daniel Aravena         : Magnetic Suceptibility
   Michael Atanasov       : Ab Initio Ligand Field Theory (pilot matlab implementation)
   Alexander A. Auer      : GIAO ZORA, VPT2
   Ute Becker             : Parallelization
   Giovanni Bistoni       : ED, misc. LED, open-shell LED, HFLD
   Martin Brehm           : Molecular dynamics
   Dmytro Bykov           : SCF Hessian
   Vijay G. Chilkuri      : MRCI spin determinant printing, contributions to CSF-ICE
   Dipayan Datta          : RHF DLPNO-CCSD density
   Achintya Kumar Dutta   : EOM-CC, STEOM-CC
   Dmitry Ganyushin       : Spin-Orbit,Spin-Spin,Magnetic field MRCI
   Miquel Garcia          : C-PCM Hessian, Gaussian charge scheme
   Yang Guo               : DLPNO-NEVPT2, CIM, IAO-localization
   Andreas Hansen         : Spin unrestricted coupled pair/coupled cluster methods
   Benjamin Helmich-Paris : CASSCF linear response (MC-RPA)
   Lee Huntington         : MR-EOM, pCC
   Robert Izsak           : Overlap fitted RIJCOSX, COSX-SCS-MP3, EOM
   Christian Kollmar      : KDIIS, OOCD, Brueckner-CCSD(T), CCSD density
   Simone Kossmann        : Meta GGA functionals, TD-DFT gradient, OOMP2, MP2 Hessian
   Martin Krupicka        : AUTO-CI
   Lucas Lang             : DCDCAS
   Dagmar Lenk            : GEPOL surface, SMD
   Dimitrios Liakos       : Extrapolation schemes; Compound Job, initial MDCI parallelization
   Dimitrios Manganas     : Further ROCIS development; embedding schemes
   Dimitrios Pantazis     : SARC Basis sets
   Taras Petrenko         : DFT Hessian,TD-DFT gradient, ASA, ECA, R-Raman, ABS, FL, XAS/XES, NRVS
   Peter Pinski           : DLPNO-MP2, DLPNO-MP2 Gradient
   Christoph Reimann      : Effective Core Potentials
   Marius Retegan         : Local ZFS, SOC
   Christoph Riplinger    : Optimizer, TS searches, QM/MM, DLPNO-CCSD(T), (RO)-DLPNO pert. Triples
   Tobias Risthaus        : Range-separated hybrids, TD-DFT gradient, RPA, STAB
   Michael Roemelt        : Original ROCIS implementation
   Masaaki Saitow         : Open-shell DLPNO-CCSD energy and density
   Barbara Sandhoefer     : DKH picture change effects
   Avijit Sen             : IP-ROCIS
   Kantharuban Sivalingam : CASSCF convergence, NEVPT2, FIC-MRCI
   Bernardo de Souza      : ESD, SOC TD-DFT
   Georgi Stoychev        : AutoAux, RI-MP2 NMR
   Willem Van den Heuvel  : Paramagnetic NMR
   Boris Wezisla          : Elementary symmetry handling
   Frank Wennmohs         : Technical directorship


 We gratefully acknowledge several colleagues who have allowed us to
 interface, adapt or use parts of their codes:
   Stefan Grimme, W. Hujo, H. Kruse,             : VdW corrections, initial TS optimization,
                  C. Bannwarth                     DFT functionals, gCP, sTDA/sTD-DF
   Ed Valeev, F. Pavosevic, A. Kumar             : LibInt (2-el integral package), F12 methods
   Garnet Chan, S. Sharma, J. Yang, R. Olivares  : DMRG
   Ulf Ekstrom                                   : XCFun DFT Library
   Mihaly Kallay                                 : mrcc  (arbitrary order and MRCC methods)
   Andreas Klamt, Michael Diedenhofen            : otool_cosmo (COSMO solvation model)
   Jiri Pittner, Ondrej Demel                    : Mk-CCSD
   Frank Weinhold                                : gennbo (NPA and NBO analysis)
   Christopher J. Cramer and Donald G. Truhlar   : smd solvation model
   Lars Goerigk                                  : TD-DFT with DH, B97 family of functionals
   V. Asgeirsson, H. Jonsson                     : NEB implementation
   FAccTs GmbH                                   : IRC, NEB, NEB-TS, Multilevel, MM, QM/MM, CI optimization
   S Lehtola, MJT Oliveira, MAL Marques          : LibXC Library


 Your calculation uses the libint2 library for the computation of 2-el integrals
 For citations please refer to: http://libint.valeyev.net

 Your ORCA version has been built with support for libXC version: 4.2.3
 For citations please refer to: https://tddft.org/programs/libxc/

 This ORCA versions uses:
   CBLAS   interface :  Fast vector & matrix operations
   LAPACKE interface :  Fast linear algebra routines
   SCALAPACK package :  Parallel linear algebra routines


Your calculation utilizes the atom-pairwise dispersion correction
with the zero-damping scheme (D30)
Cite in your paper:
S.Grimme, J.Antony, S.Ehrlich and H.Krieg, J.Chem.Phys., 132, (2010), 154104 
   

XCFun DFT library Copyright 2009-2010 Ulf Ekstrom and contributors.
See http://admol.org/xcfun for more information. This is free soft-
ware; see the source code for copying conditions. There is ABSOLUTELY
NO WARRANTY; not even for MERCHANTABILITY or FITNESS FOR A PARTICULAR
PURPOSE. For details see the documentation. Scientific users of this 
library should cite U. Ekstrom, L. Visscher, R. Bast, A. J. Thorvald-
sen and K. Ruud; J.Chem.Theor.Comp. 2010, DOI: 10.1021/ct100117s
XCFun Version 0.99 
----- Orbital basis set information -----
Your calculation utilizes the basis: def2-SVP
   F. Weigend and R. Ahlrichs, Phys. Chem. Chem. Phys. 7, 3297 (2005).

================================================================================
                                        WARNINGS
                       Please study these warnings very carefully!
================================================================================


INFO   : the flag for use of LIBINT has been found!

================================================================================
                                       INPUT FILE
================================================================================
NAME = config_3316.inp
|  1> ! wB97X-D3 SP def2-SVP
|  2> %pal
|  3> nprocs 16
|  4> end
|  5> 
|  6> * xyz 0 1
|  7> S 	 37.6452 	 5.70366 	 87.261 	 
|  8> C 	 37.2399 	 6.24194 	 85.6946 	 
|  9> C 	 36.6267 	 5.19271 	 85.0068 	 
| 10> C 	 36.4601 	 4.02293 	 85.7759 	 
| 11> C 	 36.9935 	 4.07937 	 87.0013 	 
| 12> H 	 36.072 	 3.14157 	 85.4286 	 
| 13> C 	 36.2023 	 5.25472 	 83.5134 	 
| 14> H 	 36.5111 	 6.04735 	 82.9223 	 
| 15> H 	 35.1485 	 5.38276 	 83.6429 	 
| 16> C 	 36.4589 	 4.00231 	 82.6226 	 
| 17> H 	 35.6471 	 3.33813 	 82.938 	 
| 18> H 	 36.2423 	 4.21725 	 81.5563 	 
| 19> C 	 37.8443 	 3.35632 	 82.7998 	 
| 20> H 	 38.0145 	 2.81844 	 83.7087 	 
| 21> H 	 38.0106 	 2.61563 	 82.0214 	 
| 22> H 	 38.5784 	 4.08938 	 82.6413 	 
| 23> S 	 35.3442 	 2.19455 	 88.2098 	 
| 24> C 	 36.0476 	 1.13779 	 89.3603 	 
| 25> C 	 37.408 	 1.35772 	 89.5397 	 
| 26> C 	 37.9111 	 2.47257 	 88.8051 	 
| 27> C 	 36.9256 	 2.98196 	 87.9699 	 
| 28> H 	 37.9689 	 0.775365 	 90.2813 	 
| 29> C 	 39.3024 	 2.99755 	 88.9426 	 
| 30> H 	 39.4364 	 3.26182 	 89.9535 	 
| 31> H 	 39.2449 	 3.99596 	 88.404 	 
| 32> C 	 40.4199 	 1.95351 	 88.5545 	 
| 33> H 	 40.2083 	 1.69812 	 87.5407 	 
| 34> H 	 40.3141 	 1.0256 	 89.0839 	 
| 35> C 	 41.7989 	 2.45619 	 88.7102 	 
| 36> H 	 42.6401 	 1.8271 	 88.4956 	 
| 37> H 	 41.8779 	 2.95675 	 89.6746 	 
| 38> H 	 41.9049 	 3.28422 	 87.9792 	 
| 39> H 	 37.4169 	 7.23746 	 85.249 	 
| 40> H 	 35.493 	 0.53042 	 90.0857 	 
| 41> *
| 42> 
| 43>                          ****END OF INPUT****
================================================================================

                       ****************************
                       * Single Point Calculation *
                       ****************************

---------------------------------
CARTESIAN COORDINATES (ANGSTROEM)
---------------------------------
  S     37.645200    5.703660   87.261000
  C     37.239900    6.241940   85.694600
  C     36.626700    5.192710   85.006800
  C     36.460100    4.022930   85.775900
  C     36.993500    4.079370   87.001300
  H     36.072000    3.141570   85.428600
  C     36.202300    5.254720   83.513400
  H     36.511100    6.047350   82.922300
  H     35.148500    5.382760   83.642900
  C     36.458900    4.002310   82.622600
  H     35.647100    3.338130   82.938000
  H     36.242300    4.217250   81.556300
  C     37.844300    3.356320   82.799800
  H     38.014500    2.818440   83.708700
  H     38.010600    2.615630   82.021400
  H     38.578400    4.089380   82.641300
  S     35.344200    2.194550   88.209800
  C     36.047600    1.137790   89.360300
  C     37.408000    1.357720   89.539700
  C     37.911100    2.472570   88.805100
  C     36.925600    2.981960   87.969900
  H     37.968900    0.775365   90.281300
  C     39.302400    2.997550   88.942600
  H     39.436400    3.261820   89.953500
  H     39.244900    3.995960   88.404000
  C     40.419900    1.953510   88.554500
  H     40.208300    1.698120   87.540700
  H     40.314100    1.025600   89.083900
  C     41.798900    2.456190   88.710200
  H     42.640100    1.827100   88.495600
  H     41.877900    2.956750   89.674600
  H     41.904900    3.284220   87.979200
  H     37.416900    7.237460   85.249000
  H     35.493000    0.530420   90.085700

----------------------------
CARTESIAN COORDINATES (A.U.)
----------------------------
  NO LB      ZA    FRAG     MASS         X           Y           Z
   0 S    16.0000    0    32.060   71.139118   10.778355  164.899392
   1 C     6.0000    0    12.011   70.373212   11.795557  161.939325
   2 C     6.0000    0    12.011   69.214432    9.812800  160.639572
   3 C     6.0000    0    12.011   68.899604    7.602236  162.092960
   4 C     6.0000    0    12.011   69.907584    7.708892  164.408630
   5 H     1.0000    0     1.008   68.166201    5.936707  161.436658
   6 C     6.0000    0    12.011   68.412432    9.929982  157.817455
   7 H     1.0000    0     1.008   68.995980   11.427835  156.700437
   8 H     1.0000    0     1.008   66.421039   10.171942  158.062174
   9 C     6.0000    0    12.011   68.897336    7.563270  156.134086
  10 H     1.0000    0     1.008   67.363256    6.308151  156.730106
  11 H     1.0000    0     1.008   68.488021    7.969448  154.119071
  12 C     6.0000    0    12.011   71.515363    6.342526  156.468946
  13 H     1.0000    0     1.008   71.836994    5.326080  158.186518
  14 H     1.0000    0     1.008   71.829624    4.942824  154.997983
  15 H     1.0000    0     1.008   72.902611    7.727808  156.169424
  16 S    16.0000    0    32.060   66.790858    4.147098  166.692364
  17 C     6.0000    0    12.011   68.120092    2.150111  168.866494
  18 C     6.0000    0    12.011   70.690875    2.565719  169.205511
  19 C     6.0000    0    12.011   71.641596    4.672480  167.817318
  20 C     6.0000    0    12.011   69.779271    5.635088  166.239019
  21 H     1.0000    0     1.008   71.750823    1.465228  170.606932
  22 C     6.0000    0    12.011   74.270772    5.664549  168.077156
  23 H     1.0000    0     1.008   74.523996    6.163946  169.987480
  24 H     1.0000    0     1.008   74.162113    7.551270  167.059349
  25 C     6.0000    0    12.011   76.382541    3.691599  167.343753
  26 H     1.0000    0     1.008   75.982675    3.208982  165.427949
  27 H     1.0000    0     1.008   76.182608    1.938103  168.344174
  28 C     6.0000    0    12.011   78.988474    4.641526  167.637983
  29 H     1.0000    0     1.008   80.578111    3.452719  167.232448
  30 H     1.0000    0     1.008   79.137762    5.587448  169.460435
  31 H     1.0000    0     1.008   79.188785    6.206276  166.256593
  32 H     1.0000    0     1.008   70.707694   13.676817  161.097263
  33 H     1.0000    0     1.008   67.072050    1.002349  170.237302

--------------------------------
INTERNAL COORDINATES (ANGSTROEM)
--------------------------------
 S      0   0   0     0.000000000000     0.00000000     0.00000000
 C      1   0   0     1.705175184079     0.00000000     0.00000000
 C      2   1   0     1.396412071310   108.64158302     0.00000000
 C      3   2   1     1.409842409066   113.99329281     2.34513567
 C      4   3   2     1.337649503271   114.68405796   355.75751036
 H      4   3   2     1.023735488102   125.03393938   183.02748183
 C      3   2   1     1.553770948403   124.28896725   184.57639122
 H      7   3   2     1.035866288138   119.83963382    10.30865660
 H      7   3   2     1.069419904247    99.06425740   256.21915186
 C      7   3   2     1.558171687620   118.19174389   138.69879197
 H     10   7   3     1.095276893028   101.57923072    77.05964664
 H     10   7   3     1.109103445852   111.20488766   187.71863836
 C     10   7   3     1.538842448108   114.82459049   315.61553417
 H     13  10   7     1.069757984032   116.88143284    72.36704895
 H     13  10   7     1.087282817900   109.95206778   190.52816588
 H     13  10   7     1.049477023855   108.61024462   305.04278228
 S      5   4   3     2.780864824546    97.64366385   154.67146633
 C     17   5   4     1.713231889617   117.80100416   141.99804400
 C     18  17   5     1.389691233656   113.01606383   359.38509871
 C     19  18  17     1.426757615189   113.72701642     4.24408374
 C     20  19  18     1.388613503499   110.24673397   353.61638075
 H     19  18  17     1.097140244465   120.24638261   177.38881908
 C     20  19  18     1.493394100832   123.76519026   173.31579369
 H     23  20  19     1.053429372526   107.16057824   301.68359492
 H     23  20  19     1.135877959158   102.60168617   192.56970000
 C     23  20  19     1.577798270249   113.86513728    61.26276390
 H     26  23  20     1.066671951492   104.57886313    58.81178753
 H     26  23  20     1.073533869098   112.38605873   306.61586127
 C     26  23  20     1.475998195256   114.23095044   181.02419210
 H     29  26  23     1.072112320655   120.80403124   178.71102448
 H     29  26  23     1.089435024956   108.51850142    45.98964783
 H     29  26  23     1.109608345724   105.89659944   295.42241072
 H      2   1   3     1.104965352579   128.08161774   180.41779086
 H     18  17   5     1.096669793922   125.32256343   163.80716645

---------------------------
INTERNAL COORDINATES (A.U.)
---------------------------
 S      0   0   0     0.000000000000     0.00000000     0.00000000
 C      1   0   0     3.222314108269     0.00000000     0.00000000
 C      2   1   0     2.638836384877   108.64158302     0.00000000
 C      3   2   1     2.664216045122   113.99329281     2.34513567
 C      4   3   2     2.527791224357   114.68405796   355.75751036
 H      4   3   2     1.934579706089   125.03393938   183.02748183
 C      3   2   1     2.936201567324   124.28896725   184.57639122
 H      7   3   2     1.957503595942   119.83963382    10.30865660
 H      7   3   2     2.020910741191    99.06425740   256.21915186
 C      7   3   2     2.944517759231   118.19174389   138.69879197
 H     10   7   3     2.069773368634   101.57923072    77.05964664
 H     10   7   3     2.095901766848   111.20488766   187.71863836
 C     10   7   3     2.907990790178   114.82459049   315.61553417
 H     13  10   7     2.021549619396   116.88143284    72.36704895
 H     13  10   7     2.054666755949   109.95206778   190.52816588
 H     13  10   7     1.983224158929   108.61024462   305.04278228
 S      5   4   3     5.255072933848    97.64366385   154.67146633
 C     17   5   4     3.237539075276   117.80100416   141.99804400
 C     18  17   5     2.626135842321   113.01606383   359.38509871
 C     19  18  17     2.696181152194   113.72701642     4.24408374
 C     20  19  18     2.624099227478   110.24673397   353.61638075
 H     19  18  17     2.073294592543   120.24638261   177.38881908
 C     20  19  18     2.822105860586   123.76519026   173.31579369
 H     23  20  19     1.990693015502   107.16057824   301.68359492
 H     23  20  19     2.146498264365   102.60168617   192.56970000
 C     23  20  19     2.981606625345   113.86513728    61.26276390
 H     26  23  20     2.015717863055   104.57886313    58.81178753
 H     26  23  20     2.028685008084   112.38605873   306.61586127
 C     26  23  20     2.789232363197   114.23095044   181.02419210
 H     29  26  23     2.025998670840   120.80403124   178.71102448
 H     29  26  23     2.058733837868   108.51850142    45.98964783
 H     29  26  23     2.096855889331   105.89659944   295.42241072
 H      2   1   3     2.088081903846   128.08161774   180.41779086
 H     18  17   5     2.072405569856   125.32256343   163.80716645

---------------------
BASIS SET INFORMATION
---------------------
There are 3 groups of distinct atoms

 Group   1 Type S   : 10s7p1d contracted to 4s3p1d pattern {5311/511/1}
 Group   2 Type C   : 7s4p1d contracted to 3s2p1d pattern {511/31/1}
 Group   3 Type H   : 4s1p contracted to 2s1p pattern {31/1}

Atom   0S    basis set group =>   1
Atom   1C    basis set group =>   2
Atom   2C    basis set group =>   2
Atom   3C    basis set group =>   2
Atom   4C    basis set group =>   2
Atom   5H    basis set group =>   3
Atom   6C    basis set group =>   2
Atom   7H    basis set group =>   3
Atom   8H    basis set group =>   3
Atom   9C    basis set group =>   2
Atom  10H    basis set group =>   3
Atom  11H    basis set group =>   3
Atom  12C    basis set group =>   2
Atom  13H    basis set group =>   3
Atom  14H    basis set group =>   3
Atom  15H    basis set group =>   3
Atom  16S    basis set group =>   1
Atom  17C    basis set group =>   2
Atom  18C    basis set group =>   2
Atom  19C    basis set group =>   2
Atom  20C    basis set group =>   2
Atom  21H    basis set group =>   3
Atom  22C    basis set group =>   2
Atom  23H    basis set group =>   3
Atom  24H    basis set group =>   3
Atom  25C    basis set group =>   2
Atom  26H    basis set group =>   3
Atom  27H    basis set group =>   3
Atom  28C    basis set group =>   2
Atom  29H    basis set group =>   3
Atom  30H    basis set group =>   3
Atom  31H    basis set group =>   3
Atom  32H    basis set group =>   3
Atom  33H    basis set group =>   3


           ************************************************************
           *        Program running with 16 parallel MPI-processes    *
           *              working on a common directory               *
           ************************************************************
------------------------------------------------------------------------------
                           ORCA GTO INTEGRAL CALCULATION
------------------------------------------------------------------------------

                         BASIS SET STATISTICS AND STARTUP INFO

 # of primitive gaussian shells          ...  294
 # of primitive gaussian functions       ...  534
 # of contracted shells                  ...  154
 # of contracted basis functions         ...  322
 Highest angular momentum                ...    2
 Maximum contraction depth               ...    5
 Integral package used                   ... LIBINT
 Integral threshhold            Thresh   ...  1.000e-10
 Primitive cut-off              TCut     ...  1.000e-11


------------------------------ INTEGRAL EVALUATION ----------------------------


 * One electron integrals 
 Pre-screening matrix                    ... done
 Shell pair data                         ... done (   0.003 sec)



           ************************************************************
           *        Program running with 16 parallel MPI-processes    *
           *              working on a common directory               *
           ************************************************************
-------------------------------------------------------------------------------
                                 ORCA SCF
-------------------------------------------------------------------------------

------------
SCF SETTINGS
------------
Hamiltonian:
 Density Functional     Method          .... DFT(GTOs)
 Exchange Functional    Exchange        .... WB97X-D3
 Correlation Functional Correlation     .... WB97X-D3
 Gradients option       PostSCFGGA      .... off
 Hybrid DFT is turned on
   Fraction HF Exchange ScalHFX         ....  0.195728
   Scaling of DF-GGA-X  ScalDFX         ....  0.000000
   Scaling of DF-GGA-C  ScalDFC         ....  1.000000
   Scaling of DF-LDA-C  ScalLDAC        ....  1.000000
   Perturbative correction              ....  0.000000
   Density functional embedding theory  .... OFF
 Long-range corrected/Screened/Range-Separated Hybrid DFT is turned on
   Amount of maximum screened exact exchange              ....  0.804272
   Range separation parameter mu (erf(mu*r12)/r12)        ....  0.250000


General Settings:
 Integral files         IntName         .... config_3316
 Hartree-Fock type      HFTyp           .... RHF
 Total Charge           Charge          ....    0
 Multiplicity           Mult            ....    1
 Number of Electrons    NEL             ....  134
 Basis Dimension        Dim             ....  322
 Nuclear Repulsion      ENuc            ....   1291.8218249960 Eh

Convergence Acceleration:
 DIIS                   CNVDIIS         .... on
   Start iteration      DIISMaxIt       ....    12
   Startup error        DIISStart       ....  0.200000
   # of expansion vecs  DIISMaxEq       ....     5
   Bias factor          DIISBfac        ....   1.050
   Max. coefficient     DIISMaxC        ....  10.000
 Newton-Raphson         CNVNR           .... off
 SOSCF                  CNVSOSCF        .... on
   Start iteration      SOSCFMaxIt      ....   150
   Startup grad/error   SOSCFStart      ....  0.003300
 Level Shifting         CNVShift        .... on
   Level shift para.    LevelShift      ....    0.2500
   Turn off err/grad.   ShiftErr        ....    0.0010
 Zerner damping         CNVZerner       .... off
 Static damping         CNVDamp         .... on
   Fraction old density DampFac         ....    0.7000
   Max. Damping (<1)    DampMax         ....    0.9800
   Min. Damping (>=0)   DampMin         ....    0.0000
   Turn off err/grad.   DampErr         ....    0.1000
 Fernandez-Rico         CNVRico         .... off

SCF Procedure:
 Maximum # iterations   MaxIter         ....   125
 SCF integral mode      SCFMode         .... Direct
   Integral package                     .... LIBINT
 Reset frequency        DirectResetFreq ....    20
 Integral Threshold     Thresh          ....  1.000e-10 Eh
 Primitive CutOff       TCut            ....  1.000e-11 Eh

Convergence Tolerance:
 Convergence Check Mode ConvCheckMode   .... Total+1el-Energy
 Convergence forced     ConvForced      .... 0
 Energy Change          TolE            ....  1.000e-06 Eh
 1-El. energy change                    ....  1.000e-03 Eh
 Orbital Gradient       TolG            ....  5.000e-05
 Orbital Rotation angle TolX            ....  5.000e-05
 DIIS Error             TolErr          ....  1.000e-06


Diagonalization of the overlap matrix:
Smallest eigenvalue                        ... 5.396e-04
Time for diagonalization                   ...    0.016 sec
Threshold for overlap eigenvalues          ... 1.000e-08
Number of eigenvalues below threshold      ... 0
Time for construction of square roots      ...    0.025 sec
Total time needed                          ...    0.042 sec

-------------------
DFT GRID GENERATION
-------------------

General Integration Accuracy     IntAcc      ...  4.340
Radial Grid Type                 RadialGrid  ... Gauss-Chebyshev
Angular Grid (max. acc.)         AngularGrid ... Lebedev-110
Angular grid pruning method      GridPruning ... 3 (G Style)
Weight generation scheme         WeightScheme... Becke
Basis function cutoff            BFCut       ...    1.0000e-10
Integration weight cutoff        WCut        ...    1.0000e-14
Grids for H and He will be reduced by one unit

# of grid points (after initial pruning)     ...  41088 (   0.0 sec)
# of grid points (after weights+screening)   ...  36972 (   0.0 sec)
nearest neighbour list constructed           ...    0.0 sec
Grid point re-assignment to atoms done       ...    0.0 sec
Grid point division into batches done        ...    0.0 sec
Reduced shell lists constructed in    0.1 sec

Total number of grid points                  ...    36972
Total number of batches                      ...      596
Average number of points per batch           ...       62
Average number of grid points per atom       ...     1087
Average number of shells per batch           ...    80.62 (52.35%)
Average number of basis functions per batch  ...   158.46 (49.21%)
Average number of large shells per batch     ...    52.08 (64.60%)
Average number of large basis fcns per batch ...   105.05 (66.29%)
Maximum spatial batch extension              ...  21.99, 15.55, 13.92 au
Average spatial batch extension              ...   0.23,  0.23,  0.20 au

Time for grid setup =    0.165 sec

------------------------------
INITIAL GUESS: MODEL POTENTIAL
------------------------------
Loading Hartree-Fock densities                     ... done
Calculating cut-offs                               ... done
Setting up the integral package                    ... done
Initializing the effective Hamiltonian             ... done
Starting the Coulomb interaction                   ... done (   0.0 sec)
Reading the grid                                   ... done
Mapping shells                                     ... done
Starting the XC term evaluation                    ... done (   0.0 sec)
  promolecular density results
     # of electrons  =    133.978233972
     EX              =   -126.769536992
     EC              =     -4.626224222
     EX+EC           =   -131.395761214
Transforming the Hamiltonian                       ... done (   0.0 sec)
Diagonalizing the Hamiltonian                      ... done (   0.0 sec)
Back transforming the eigenvectors                 ... done (   0.0 sec)
Now organizing SCF variables                       ... done
                      ------------------
                      INITIAL GUESS DONE (   0.4 sec)
                      ------------------
--------------
SCF ITERATIONS
--------------
ITER       Energy         Delta-E        Max-DP      RMS-DP      [F,P]     Damp
               ***  Starting incremental Fock matrix formation  ***
  0  -1339.4063053714   0.000000000000 0.06659993  0.00157260  0.1673138 0.7000
  1  -1339.5951054495  -0.188800078075 0.04460431  0.00116186  0.1010559 0.7000
                               ***Turning on DIIS***
  2  -1339.6888114878  -0.093706038324 0.08328892  0.00223989  0.0522739 0.0000
  3  -1339.8317624580  -0.142950970150 0.04419087  0.00092395  0.0378570 0.0000
  4  -1339.8605253761  -0.028762918135 0.00685179  0.00020488  0.0073115 0.0000
                      *** Initiating the SOSCF procedure ***
                           *** Shutting down DIIS ***
                      *** Re-Reading the Fockian *** 
                      *** Removing any level shift *** 
ITER      Energy       Delta-E        Grad      Rot      Max-DP    RMS-DP
  5  -1339.86144869  -0.0009233099  0.001703  0.001703  0.003446  0.000103
               *** Restarting incremental Fock matrix formation ***
  6  -1339.86163074  -0.0001820580  0.001428  0.003889  0.002477  0.000065
  7  -1339.86169435  -0.0000636105  0.000675  0.004259  0.002523  0.000063
  8  -1339.86171247  -0.0000181146  0.000233  0.000374  0.000502  0.000017
  9  -1339.86171568  -0.0000032124  0.000060  0.000256  0.000209  0.000006
 10  -1339.86171586  -0.0000001827  0.000055  0.000136  0.000078  0.000002
 11  -1339.86171598  -0.0000001163  0.000013  0.000036  0.000029  0.000001
                 **** Energy Check signals convergence ****
              ***Rediagonalizing the Fockian in SOSCF/NRSCF***

               *****************************************************
               *                     SUCCESS                       *
               *           SCF CONVERGED AFTER  12 CYCLES          *
               *****************************************************

Setting up the final grid:

General Integration Accuracy     IntAcc      ...  4.670
Radial Grid Type                 RadialGrid  ... Gauss-Chebyshev
Angular Grid (max. acc.)         AngularGrid ... Lebedev-302
Angular grid pruning method      GridPruning ... 3 (G Style)
Weight generation scheme         WeightScheme... Becke
Basis function cutoff            BFCut       ...    1.0000e-10
Integration weight cutoff        WCut        ...    1.0000e-14
Grids for H and He will be reduced by one unit

# of grid points (after initial pruning)     ... 161752 (   0.0 sec)
# of grid points (after weights+screening)   ... 142690 (   0.1 sec)
nearest neighbour list constructed           ...    0.0 sec
Grid point re-assignment to atoms done       ...    0.0 sec
Grid point division into batches done        ...    0.5 sec
Reduced shell lists constructed in    0.6 sec

Total number of grid points                  ...   142690
Total number of batches                      ...     2247
Average number of points per batch           ...       63
Average number of grid points per atom       ...     4197
Average number of shells per batch           ...    74.39 (48.31%)
Average number of basis functions per batch  ...   145.48 (45.18%)
Average number of large shells per batch     ...    46.75 (62.84%)
Average number of large basis fcns per batch ...    93.87 (64.53%)
Maximum spatial batch extension              ...  16.37, 15.93, 13.07 au
Average spatial batch extension              ...   0.14,  0.14,  0.12 au

Final grid set up in    0.9 sec
Final integration                            ... done (   0.3 sec)
Change in XC energy                          ...     0.005932476
Integrated number of electrons               ...   134.000189358
Previous integrated no of electrons          ...   133.989709563

----------------
TOTAL SCF ENERGY
----------------

Total Energy       :        -1339.85578350 Eh          -36459.32943 eV

Components:
Nuclear Repulsion  :         1291.82182500 Eh           35152.25896 eV
Electronic Energy  :        -2631.67760849 Eh          -71611.58839 eV
One Electron Energy:        -4400.17397526 Eh         -119734.82107 eV
Two Electron Energy:         1768.49636677 Eh           48123.23268 eV

Virial components:
Potential Energy   :        -2671.73542419 Eh          -72701.61697 eV
Kinetic Energy     :         1331.87964069 Eh           36242.28755 eV
Virial Ratio       :            2.00598864


DFT components:
N(Alpha)           :       67.000094679229 electrons
N(Beta)            :       67.000094679229 electrons
N(Total)           :      134.000189358458 electrons
E(XC)              :      -94.336052038792 Eh       
DFET-embed. en.    :        0.000000000000 Eh       

---------------
SCF CONVERGENCE
---------------

  Last Energy change         ...    8.6263e-09  Tolerance :   1.0000e-06
  Last MAX-Density change    ...    1.4319e-05  Tolerance :   1.0000e-05
  Last RMS-Density change    ...    3.9631e-07  Tolerance :   1.0000e-06
  Last Orbital Gradient      ...    9.3213e-06  Tolerance :   5.0000e-05
  Last Orbital Rotation      ...    1.5889e-05  Tolerance :   5.0000e-05

             **** THE GBW FILE WAS UPDATED (config_3316.gbw) ****
             **** DENSITY FILE WAS UPDATED (config_3316.scfp) ****
             **** ENERGY FILE WAS UPDATED (config_3316.en.tmp) ****
             **** THE GBW FILE WAS UPDATED (config_3316.gbw) ****
             **** DENSITY FILE WAS UPDATED (config_3316.scfp) ****
----------------
ORBITAL ENERGIES
----------------

  NO   OCC          E(Eh)            E(eV) 
   0   2.0000     -88.969896     -2420.9940 
   1   2.0000     -88.966235     -2420.8943 
   2   2.0000     -10.328176      -281.0440 
   3   2.0000     -10.325604      -280.9740 
   4   2.0000     -10.316894      -280.7370 
   5   2.0000     -10.313382      -280.6414 
   6   2.0000     -10.302317      -280.3403 
   7   2.0000     -10.301344      -280.3138 
   8   2.0000     -10.294459      -280.1265 
   9   2.0000     -10.292190      -280.0647 
  10   2.0000     -10.288691      -279.9695 
  11   2.0000     -10.283317      -279.8233 
  12   2.0000     -10.281682      -279.7788 
  13   2.0000     -10.279872      -279.7295 
  14   2.0000     -10.272705      -279.5345 
  15   2.0000     -10.268380      -279.4168 
  16   2.0000      -8.084457      -219.9893 
  17   2.0000      -8.080817      -219.8902 
  18   2.0000      -6.042930      -164.4365 
  19   2.0000      -6.039433      -164.3413 
  20   2.0000      -6.039027      -164.3303 
  21   2.0000      -6.035235      -164.2271 
  22   2.0000      -6.035186      -164.2258 
  23   2.0000      -6.031635      -164.1291 
  24   2.0000      -1.010587       -27.4995 
  25   2.0000      -0.988368       -26.8948 
  26   2.0000      -0.912859       -24.8402 
  27   2.0000      -0.904885       -24.6232 
  28   2.0000      -0.873261       -23.7626 
  29   2.0000      -0.860533       -23.4163 
  30   2.0000      -0.844198       -22.9718 
  31   2.0000      -0.815024       -22.1779 
  32   2.0000      -0.786344       -21.3975 
  33   2.0000      -0.772885       -21.0313 
  34   2.0000      -0.707369       -19.2485 
  35   2.0000      -0.702187       -19.1075 
  36   2.0000      -0.689668       -18.7668 
  37   2.0000      -0.664413       -18.0796 
  38   2.0000      -0.642239       -17.4762 
  39   2.0000      -0.621699       -16.9173 
  40   2.0000      -0.595835       -16.2135 
  41   2.0000      -0.566556       -15.4168 
  42   2.0000      -0.562472       -15.3056 
  43   2.0000      -0.553603       -15.0643 
  44   2.0000      -0.537590       -14.6286 
  45   2.0000      -0.532343       -14.4858 
  46   2.0000      -0.519901       -14.1472 
  47   2.0000      -0.516870       -14.0647 
  48   2.0000      -0.510156       -13.8820 
  49   2.0000      -0.494467       -13.4551 
  50   2.0000      -0.489405       -13.3174 
  51   2.0000      -0.484594       -13.1865 
  52   2.0000      -0.474540       -12.9129 
  53   2.0000      -0.466608       -12.6970 
  54   2.0000      -0.460853       -12.5404 
  55   2.0000      -0.450518       -12.2592 
  56   2.0000      -0.443205       -12.0602 
  57   2.0000      -0.434545       -11.8246 
  58   2.0000      -0.432437       -11.7672 
  59   2.0000      -0.429530       -11.6881 
  60   2.0000      -0.419005       -11.4017 
  61   2.0000      -0.413640       -11.2557 
  62   2.0000      -0.404819       -11.0157 
  63   2.0000      -0.354394        -9.6436 
  64   2.0000      -0.333604        -9.0778 
  65   2.0000      -0.327338        -8.9073 
  66   2.0000      -0.288380        -7.8472 
  67   0.0000       0.033614         0.9147 
  68   0.0000       0.070510         1.9187 
  69   0.0000       0.109025         2.9667 
  70   0.0000       0.117687         3.2024 
  71   0.0000       0.137502         3.7416 
  72   0.0000       0.146336         3.9820 
  73   0.0000       0.149002         4.0545 
  74   0.0000       0.157799         4.2939 
  75   0.0000       0.166130         4.5206 
  76   0.0000       0.170497         4.6395 
  77   0.0000       0.187816         5.1107 
  78   0.0000       0.189255         5.1499 
  79   0.0000       0.196261         5.3405 
  80   0.0000       0.202528         5.5111 
  81   0.0000       0.209702         5.7063 
  82   0.0000       0.212940         5.7944 
  83   0.0000       0.217957         5.9309 
  84   0.0000       0.223192         6.0734 
  85   0.0000       0.228064         6.2059 
  86   0.0000       0.242147         6.5892 
  87   0.0000       0.247055         6.7227 
  88   0.0000       0.251405         6.8411 
  89   0.0000       0.263686         7.1752 
  90   0.0000       0.264709         7.2031 
  91   0.0000       0.271185         7.3793 
  92   0.0000       0.276977         7.5369 
  93   0.0000       0.291823         7.9409 
  94   0.0000       0.316089         8.6012 
  95   0.0000       0.322339         8.7713 
  96   0.0000       0.324048         8.8178 
  97   0.0000       0.343534         9.3480 
  98   0.0000       0.345529         9.4023 
  99   0.0000       0.363251         9.8846 
 100   0.0000       0.381079        10.3697 
 101   0.0000       0.393284        10.7018 
 102   0.0000       0.421458        11.4684 
 103   0.0000       0.422849        11.5063 
 104   0.0000       0.444650        12.0995 
 105   0.0000       0.448954        12.2167 
 106   0.0000       0.456757        12.4290 
 107   0.0000       0.478192        13.0123 
 108   0.0000       0.485843        13.2205 
 109   0.0000       0.495605        13.4861 
 110   0.0000       0.508718        13.8429 
 111   0.0000       0.511528        13.9194 
 112   0.0000       0.519330        14.1317 
 113   0.0000       0.522425        14.2159 
 114   0.0000       0.533993        14.5307 
 115   0.0000       0.540655        14.7120 
 116   0.0000       0.544622        14.8199 
 117   0.0000       0.547625        14.9016 
 118   0.0000       0.554156        15.0793 
 119   0.0000       0.584725        15.9112 
 120   0.0000       0.585274        15.9261 
 121   0.0000       0.598586        16.2883 
 122   0.0000       0.601354        16.3637 
 123   0.0000       0.608726        16.5643 
 124   0.0000       0.621504        16.9120 
 125   0.0000       0.625033        17.0080 
 126   0.0000       0.634353        17.2616 
 127   0.0000       0.637960        17.3598 
 128   0.0000       0.650793        17.7090 
 129   0.0000       0.663085        18.0435 
 130   0.0000       0.674113        18.3436 
 131   0.0000       0.689006        18.7488 
 132   0.0000       0.695879        18.9358 
 133   0.0000       0.704024        19.1575 
 134   0.0000       0.710130        19.3236 
 135   0.0000       0.718851        19.5609 
 136   0.0000       0.726866        19.7790 
 137   0.0000       0.731003        19.8916 
 138   0.0000       0.734558        19.9883 
 139   0.0000       0.739832        20.1318 
 140   0.0000       0.742447        20.2030 
 141   0.0000       0.753611        20.5068 
 142   0.0000       0.757479        20.6121 
 143   0.0000       0.762276        20.7426 
 144   0.0000       0.765103        20.8195 
 145   0.0000       0.768215        20.9042 
 146   0.0000       0.775751        21.1092 
 147   0.0000       0.781533        21.2666 
 148   0.0000       0.788893        21.4669 
 149   0.0000       0.792034        21.5523 
 150   0.0000       0.796157        21.6645 
 151   0.0000       0.799391        21.7525 
 152   0.0000       0.802570        21.8390 
 153   0.0000       0.809129        22.0175 
 154   0.0000       0.812818        22.1179 
 155   0.0000       0.815221        22.1833 
 156   0.0000       0.817541        22.2464 
 157   0.0000       0.821838        22.3633 
 158   0.0000       0.823939        22.4205 
 159   0.0000       0.831570        22.6282 
 160   0.0000       0.834032        22.6952 
 161   0.0000       0.841579        22.9005 
 162   0.0000       0.850786        23.1511 
 163   0.0000       0.855134        23.2694 
 164   0.0000       0.856216        23.2988 
 165   0.0000       0.861323        23.4378 
 166   0.0000       0.877963        23.8906 
 167   0.0000       0.884853        24.0781 
 168   0.0000       0.895776        24.3753 
 169   0.0000       0.898895        24.4602 
 170   0.0000       0.911279        24.7972 
 171   0.0000       0.924717        25.1628 
 172   0.0000       0.930271        25.3140 
 173   0.0000       0.936548        25.4848 
 174   0.0000       0.955382        25.9973 
 175   0.0000       0.979939        26.6655 
 176   0.0000       0.981010        26.6947 
 177   0.0000       0.989563        26.9274 
 178   0.0000       1.011544        27.5255 
 179   0.0000       1.020119        27.7589 
 180   0.0000       1.074176        29.2298 
 181   0.0000       1.082740        29.4628 
 182   0.0000       1.101369        29.9698 
 183   0.0000       1.102793        30.0085 
 184   0.0000       1.119670        30.4678 
 185   0.0000       1.141305        31.0565 
 186   0.0000       1.153858        31.3981 
 187   0.0000       1.171463        31.8771 
 188   0.0000       1.181468        32.1494 
 189   0.0000       1.191630        32.4259 
 190   0.0000       1.222666        33.2704 
 191   0.0000       1.243700        33.8428 
 192   0.0000       1.260740        34.3065 
 193   0.0000       1.281462        34.8703 
 194   0.0000       1.290250        35.1095 
 195   0.0000       1.295039        35.2398 
 196   0.0000       1.322498        35.9870 
 197   0.0000       1.347600        36.6701 
 198   0.0000       1.355375        36.8816 
 199   0.0000       1.375723        37.4353 
 200   0.0000       1.396506        38.0009 
 201   0.0000       1.418796        38.6074 
 202   0.0000       1.420847        38.6632 
 203   0.0000       1.442514        39.2528 
 204   0.0000       1.460407        39.7397 
 205   0.0000       1.475932        40.1622 
 206   0.0000       1.481078        40.3022 
 207   0.0000       1.493740        40.6467 
 208   0.0000       1.507194        41.0128 
 209   0.0000       1.563785        42.5528 
 210   0.0000       1.578549        42.9545 
 211   0.0000       1.611548        43.8524 
 212   0.0000       1.617427        44.0124 
 213   0.0000       1.635590        44.5067 
 214   0.0000       1.654852        45.0308 
 215   0.0000       1.667957        45.3874 
 216   0.0000       1.678146        45.6647 
 217   0.0000       1.689367        45.9700 
 218   0.0000       1.769880        48.1609 
 219   0.0000       1.787457        48.6392 
 220   0.0000       1.796094        48.8742 
 221   0.0000       1.810254        49.2595 
 222   0.0000       1.813298        49.3423 
 223   0.0000       1.822612        49.5958 
 224   0.0000       1.833112        49.8815 
 225   0.0000       1.842939        50.1489 
 226   0.0000       1.852247        50.4022 
 227   0.0000       1.858126        50.5622 
 228   0.0000       1.864172        50.7267 
 229   0.0000       1.871965        50.9388 
 230   0.0000       1.879875        51.1540 
 231   0.0000       1.881716        51.2041 
 232   0.0000       1.889004        51.4024 
 233   0.0000       1.898348        51.6567 
 234   0.0000       1.899999        51.7016 
 235   0.0000       1.921018        52.2735 
 236   0.0000       1.927606        52.4528 
 237   0.0000       1.937914        52.7333 
 238   0.0000       1.945236        52.9325 
 239   0.0000       1.948575        53.0234 
 240   0.0000       1.970276        53.6139 
 241   0.0000       1.977389        53.8075 
 242   0.0000       1.986875        54.0656 
 243   0.0000       1.990819        54.1729 
 244   0.0000       1.993455        54.2447 
 245   0.0000       1.999098        54.3982 
 246   0.0000       2.008970        54.6668 
 247   0.0000       2.022271        55.0288 
 248   0.0000       2.039296        55.4921 
 249   0.0000       2.044529        55.6345 
 250   0.0000       2.050633        55.8005 
 251   0.0000       2.056139        55.9504 
 252   0.0000       2.066170        56.2234 
 253   0.0000       2.070794        56.3492 
 254   0.0000       2.090711        56.8911 
 255   0.0000       2.104673        57.2711 
 256   0.0000       2.119717        57.6804 
 257   0.0000       2.129663        57.9511 
 258   0.0000       2.143149        58.3180 
 259   0.0000       2.163961        58.8844 
 260   0.0000       2.178369        59.2764 
 261   0.0000       2.195937        59.7545 
 262   0.0000       2.202297        59.9276 
 263   0.0000       2.220349        60.4188 
 264   0.0000       2.237071        60.8738 
 265   0.0000       2.250019        61.2261 
 266   0.0000       2.269417        61.7540 
 267   0.0000       2.284971        62.1772 
 268   0.0000       2.289570        62.3024 
 269   0.0000       2.309538        62.8457 
 270   0.0000       2.316044        63.0228 
 271   0.0000       2.350884        63.9708 
 272   0.0000       2.386612        64.9430 
 273   0.0000       2.395209        65.1769 
 274   0.0000       2.423163        65.9376 
 275   0.0000       2.442130        66.4537 
 276   0.0000       2.445935        66.5573 
 277   0.0000       2.462350        67.0039 
 278   0.0000       2.480390        67.4948 
 279   0.0000       2.500046        68.0297 
 280   0.0000       2.516374        68.4740 
 281   0.0000       2.529456        68.8300 
 282   0.0000       2.535206        68.9865 
 283   0.0000       2.538295        69.0705 
 284   0.0000       2.564102        69.7728 
 285   0.0000       2.581140        70.2364 
 286   0.0000       2.594556        70.6014 
 287   0.0000       2.614466        71.1432 
 288   0.0000       2.627393        71.4950 
 289   0.0000       2.633502        71.6612 
 290   0.0000       2.657862        72.3241 
 291   0.0000       2.672904        72.7334 
 292   0.0000       2.698906        73.4410 
 293   0.0000       2.728282        74.2403 
 294   0.0000       2.732685        74.3601 
 295   0.0000       2.756320        75.0033 
 296   0.0000       2.778233        75.5996 
 297   0.0000       2.781931        75.7002 
 298   0.0000       2.791835        75.9697 
 299   0.0000       2.831295        77.0435 
 300   0.0000       2.856353        77.7253 
 301   0.0000       2.879076        78.3437 
 302   0.0000       2.897306        78.8397 
 303   0.0000       2.904853        79.0451 
 304   0.0000       2.970982        80.8445 
 305   0.0000       2.977584        81.0242 
 306   0.0000       3.010365        81.9162 
 307   0.0000       3.031986        82.5045 
 308   0.0000       3.036790        82.6353 
 309   0.0000       3.060616        83.2836 
 310   0.0000       3.080926        83.8363 
 311   0.0000       3.107678        84.5642 
 312   0.0000       3.135319        85.3164 
 313   0.0000       3.141398        85.4818 
 314   0.0000       3.157574        85.9220 
 315   0.0000       3.169501        86.2465 
 316   0.0000       3.196383        86.9780 
 317   0.0000       3.208275        87.3016 
 318   0.0000       3.255263        88.5802 
 319   0.0000       3.308542        90.0300 
 320   0.0000       3.384651        92.1010 
 321   0.0000       3.468703        94.3882 

                    ********************************
                    * MULLIKEN POPULATION ANALYSIS *
                    ********************************

-----------------------
MULLIKEN ATOMIC CHARGES
-----------------------
   0 S :    0.107044
   1 C :   -0.136337
   2 C :   -0.083393
   3 C :    0.018258
   4 C :   -0.108282
   5 H :   -0.025707
   6 C :    0.094004
   7 H :    0.002961
   8 H :    0.031724
   9 C :   -0.116357
  10 H :    0.026167
  11 H :    0.036618
  12 C :   -0.006681
  13 H :    0.035684
  14 H :    0.023562
  15 H :    0.020310
  16 S :    0.122736
  17 C :   -0.092841
  18 C :   -0.051035
  19 C :   -0.047470
  20 C :   -0.176937
  21 H :    0.022533
  22 C :    0.089282
  23 H :    0.017064
  24 H :    0.022719
  25 C :   -0.061267
  26 H :    0.023716
  27 H :    0.023593
  28 C :   -0.019336
  29 H :    0.038279
  30 H :    0.022247
  31 H :    0.021390
  32 H :    0.060265
  33 H :    0.065488
Sum of atomic charges:   -0.0000000

--------------------------------
MULLIKEN REDUCED ORBITAL CHARGES
--------------------------------
  0 S s       :     5.828998  s :     5.828998
      pz      :     3.278028  p :     9.950710
      px      :     3.596423
      py      :     3.076259
      dz2     :     0.033860  d :     0.113249
      dxz     :     0.017978
      dyz     :     0.020637
      dx2y2   :     0.017227
      dxy     :     0.023547
  1 C s       :     3.195954  s :     3.195954
      pz      :     0.862187  p :     2.906350
      px      :     1.086438
      py      :     0.957726
      dz2     :     0.009654  d :     0.034032
      dxz     :     0.005864
      dyz     :     0.008228
      dx2y2   :     0.005776
      dxy     :     0.004510
  2 C s       :     3.064999  s :     3.064999
      pz      :     1.000153  p :     2.975065
      px      :     1.004688
      py      :     0.970223
      dz2     :     0.009710  d :     0.043330
      dxz     :     0.007507
      dyz     :     0.012316
      dx2y2   :     0.006924
      dxy     :     0.006873
  3 C s       :     3.206127  s :     3.206127
      pz      :     0.911439  p :     2.738697
      px      :     0.975225
      py      :     0.852033
      dz2     :     0.009741  d :     0.036918
      dxz     :     0.007212
      dyz     :     0.009565
      dx2y2   :     0.005262
      dxy     :     0.005137
  4 C s       :     3.024675  s :     3.024675
      pz      :     1.007094  p :     3.037297
      px      :     1.073488
      py      :     0.956716
      dz2     :     0.013257  d :     0.046310
      dxz     :     0.006852
      dyz     :     0.011696
      dx2y2   :     0.008008
      dxy     :     0.006497
  5 H s       :     0.998347  s :     0.998347
      pz      :     0.005872  p :     0.027360
      px      :     0.007646
      py      :     0.013842
  6 C s       :     2.942109  s :     2.942109
      pz      :     0.899628  p :     2.929180
      px      :     1.022234
      py      :     1.007318
      dz2     :     0.009039  d :     0.034707
      dxz     :     0.004281
      dyz     :     0.009276
      dx2y2   :     0.008693
      dxy     :     0.003418
  7 H s       :     0.971250  s :     0.971250
      pz      :     0.007760  p :     0.025789
      px      :     0.006911
      py      :     0.011118
  8 H s       :     0.942963  s :     0.942963
      pz      :     0.005869  p :     0.025313
      px      :     0.014503
      py      :     0.004942
  9 C s       :     3.079602  s :     3.079602
      pz      :     0.995284  p :     3.001044
      px      :     1.000745
      py      :     1.005015
      dz2     :     0.008498  d :     0.035711
      dxz     :     0.004584
      dyz     :     0.006073
      dx2y2   :     0.006453
      dxy     :     0.010103
 10 H s       :     0.951147  s :     0.951147
      pz      :     0.005778  p :     0.022686
      px      :     0.008916
      py      :     0.007993
 11 H s       :     0.941720  s :     0.941720
      pz      :     0.013133  p :     0.021662
      px      :     0.004349
      py      :     0.004180
 12 C s       :     2.968941  s :     2.968941
      pz      :     1.030362  p :     3.009074
      px      :     0.974427
      py      :     1.004284
      dz2     :     0.005085  d :     0.028667
      dxz     :     0.002977
      dyz     :     0.008119
      dx2y2   :     0.004057
      dxy     :     0.008428
 13 H s       :     0.939395  s :     0.939395
      pz      :     0.012938  p :     0.024921
      px      :     0.004314
      py      :     0.007669
 14 H s       :     0.951994  s :     0.951994
      pz      :     0.010174  p :     0.024444
      px      :     0.004727
      py      :     0.009544
 15 H s       :     0.953708  s :     0.953708
      pz      :     0.005983  p :     0.025982
      px      :     0.009628
      py      :     0.010371
 16 S s       :     5.840929  s :     5.840929
      pz      :     3.389235  p :     9.928446
      px      :     3.271411
      py      :     3.267800
      dz2     :     0.022899  d :     0.107889
      dxz     :     0.018581
      dyz     :     0.018051
      dx2y2   :     0.022554
      dxy     :     0.025806
 17 C s       :     3.134754  s :     3.134754
      pz      :     0.960627  p :     2.922555
      px      :     0.968637
      py      :     0.993291
      dz2     :     0.005610  d :     0.035532
      dxz     :     0.009322
      dyz     :     0.005318
      dx2y2   :     0.005901
      dxy     :     0.009381
 18 C s       :     3.193750  s :     3.193750
      pz      :     0.964693  p :     2.822794
      px      :     0.897668
      py      :     0.960433
      dz2     :     0.004563  d :     0.034491
      dxz     :     0.007432
      dyz     :     0.005220
      dx2y2   :     0.008893
      dxy     :     0.008384
 19 C s       :     3.076224  s :     3.076224
      pz      :     0.987527  p :     2.926821
      px      :     0.962068
      py      :     0.977227
      dz2     :     0.007802  d :     0.044424
      dxz     :     0.010369
      dyz     :     0.005596
      dx2y2   :     0.009534
      dxy     :     0.011123
 20 C s       :     3.053443  s :     3.053443
      pz      :     1.103055  p :     3.080668
      px      :     0.927399
      py      :     1.050214
      dz2     :     0.007752  d :     0.042826
      dxz     :     0.008653
      dyz     :     0.006864
      dx2y2   :     0.008643
      dxy     :     0.010914
 21 H s       :     0.954252  s :     0.954252
      pz      :     0.009563  p :     0.023214
      px      :     0.006443
      py      :     0.007208
 22 C s       :     2.924944  s :     2.924944
      pz      :     1.017786  p :     2.950677
      px      :     0.930232
      py      :     1.002659
      dz2     :     0.009154  d :     0.035097
      dxz     :     0.003947
      dyz     :     0.005725
      dx2y2   :     0.008709
      dxy     :     0.007562
 23 H s       :     0.957824  s :     0.957824
      pz      :     0.014301  p :     0.025112
      px      :     0.004807
      py      :     0.006004
 24 H s       :     0.954623  s :     0.954623
      pz      :     0.007138  p :     0.022659
      px      :     0.003587
      py      :     0.011934
 25 C s       :     3.031076  s :     3.031076
      pz      :     1.040875  p :     2.992141
      px      :     0.955618
      py      :     0.995648
      dz2     :     0.008135  d :     0.038050
      dxz     :     0.005627
      dyz     :     0.006976
      dx2y2   :     0.008852
      dxy     :     0.008460
 26 H s       :     0.952200  s :     0.952200
      pz      :     0.014077  p :     0.024084
      px      :     0.004536
      py      :     0.005472
 27 H s       :     0.952827  s :     0.952827
      pz      :     0.007878  p :     0.023580
      px      :     0.004095
      py      :     0.011607
 28 C s       :     2.986424  s :     2.986424
      pz      :     1.025563  p :     3.002841
      px      :     0.956607
      py      :     1.020671
      dz2     :     0.005423  d :     0.030071
      dxz     :     0.003583
      dyz     :     0.008007
      dx2y2   :     0.005787
      dxy     :     0.007272
 29 H s       :     0.937206  s :     0.937206
      pz      :     0.005773  p :     0.024515
      px      :     0.010390
      py      :     0.008352
 30 H s       :     0.953644  s :     0.953644
      pz      :     0.012503  p :     0.024109
      px      :     0.004418
      py      :     0.007187
 31 H s       :     0.954512  s :     0.954512
      pz      :     0.009226  p :     0.024098
      px      :     0.004709
      py      :     0.010163
 32 H s       :     0.916570  s :     0.916570
      pz      :     0.004962  p :     0.023166
      px      :     0.005045
      py      :     0.013159
 33 H s       :     0.910915  s :     0.910915
      pz      :     0.009404  p :     0.023597
      px      :     0.006220
      py      :     0.007974


                     *******************************
                     * LOEWDIN POPULATION ANALYSIS *
                     *******************************

----------------------
LOEWDIN ATOMIC CHARGES
----------------------
   0 S :    0.419529
   1 C :   -0.221485
   2 C :   -0.056547
   3 C :   -0.064442
   4 C :   -0.182278
   5 H :    0.015156
   6 C :   -0.029141
   7 H :    0.015890
   8 H :    0.033745
   9 C :   -0.043398
  10 H :    0.020230
  11 H :    0.029977
  12 C :   -0.060810
  13 H :    0.025377
  14 H :    0.027454
  15 H :    0.019900
  16 S :    0.414977
  17 C :   -0.201793
  18 C :   -0.072250
  19 C :   -0.053246
  20 C :   -0.187274
  21 H :    0.032144
  22 C :   -0.030255
  23 H :    0.024811
  24 H :    0.027282
  25 C :   -0.035061
  26 H :    0.022589
  27 H :    0.020808
  28 C :   -0.067894
  29 H :    0.025464
  30 H :    0.025201
  31 H :    0.030232
  32 H :    0.039948
  33 H :    0.035159

-------------------------------
LOEWDIN REDUCED ORBITAL CHARGES
-------------------------------
  0 S s       :     5.486409  s :     5.486409
      pz      :     3.301462  p :     9.953287
      px      :     3.566741
      py      :     3.085084
      dz2     :     0.043148  d :     0.140774
      dxz     :     0.020243
      dyz     :     0.026062
      dx2y2   :     0.022180
      dxy     :     0.029140
  1 C s       :     2.932811  s :     2.932811
      pz      :     1.023654  p :     3.207509
      px      :     1.105118
      py      :     1.078737
      dz2     :     0.023544  d :     0.081165
      dxz     :     0.013571
      dyz     :     0.021802
      dx2y2   :     0.012208
      dxy     :     0.010040
  2 C s       :     2.865844  s :     2.865844
      pz      :     1.032138  p :     3.084052
      px      :     0.995699
      py      :     1.056214
      dz2     :     0.024375  d :     0.106652
      dxz     :     0.015246
      dyz     :     0.034099
      dx2y2   :     0.016164
      dxy     :     0.016769
  3 C s       :     2.833852  s :     2.833852
      pz      :     1.053506  p :     3.129245
      px      :     1.028769
      py      :     1.046970
      dz2     :     0.027088  d :     0.101345
      dxz     :     0.019161
      dyz     :     0.029638
      dx2y2   :     0.013086
      dxy     :     0.012373
  4 C s       :     2.896458  s :     2.896458
      pz      :     1.091331  p :     3.175937
      px      :     1.070680
      py      :     1.013926
      dz2     :     0.031838  d :     0.109883
      dxz     :     0.016358
      dyz     :     0.029609
      dx2y2   :     0.017524
      dxy     :     0.014555
  5 H s       :     0.902937  s :     0.902937
      pz      :     0.019250  p :     0.081907
      px      :     0.023524
      py      :     0.039134
  6 C s       :     2.816039  s :     2.816039
      pz      :     0.995947  p :     3.126457
      px      :     1.073350
      py      :     1.057160
      dz2     :     0.022443  d :     0.086645
      dxz     :     0.010435
      dyz     :     0.024251
      dx2y2   :     0.021608
      dxy     :     0.007909
  7 H s       :     0.904709  s :     0.904709
      pz      :     0.024794  p :     0.079401
      px      :     0.020135
      py      :     0.034472
  8 H s       :     0.892460  s :     0.892460
      pz      :     0.016915  p :     0.073795
      px      :     0.041029
      py      :     0.015852
  9 C s       :     2.841766  s :     2.841766
      pz      :     1.041598  p :     3.116525
      px      :     1.035490
      py      :     1.039436
      dz2     :     0.021250  d :     0.085107
      dxz     :     0.009617
      dyz     :     0.015535
      dx2y2   :     0.014596
      dxy     :     0.024109
 10 H s       :     0.912035  s :     0.912035
      pz      :     0.015908  p :     0.067735
      px      :     0.027500
      py      :     0.024326
 11 H s       :     0.906364  s :     0.906364
      pz      :     0.036990  p :     0.063659
      px      :     0.013261
      py      :     0.013408
 12 C s       :     2.815186  s :     2.815186
      pz      :     1.079236  p :     3.171949
      px      :     1.033076
      py      :     1.059636
      dz2     :     0.013587  d :     0.073675
      dxz     :     0.006097
      dyz     :     0.021151
      dx2y2   :     0.010360
      dxy     :     0.022481
 13 H s       :     0.903855  s :     0.903855
      pz      :     0.034902  p :     0.070768
      px      :     0.014461
      py      :     0.021404
 14 H s       :     0.905750  s :     0.905750
      pz      :     0.026971  p :     0.066796
      px      :     0.014450
      py      :     0.025375
 15 H s       :     0.906168  s :     0.906168
      pz      :     0.016470  p :     0.073932
      px      :     0.029119
      py      :     0.028343
 16 S s       :     5.507132  s :     5.507132
      pz      :     3.378883  p :     9.944526
      px      :     3.308829
      py      :     3.256814
      dz2     :     0.027600  d :     0.133366
      dxz     :     0.022096
      dyz     :     0.024117
      dx2y2   :     0.026726
      dxy     :     0.032827
 17 C s       :     2.933580  s :     2.933580
      pz      :     1.043611  p :     3.184813
      px      :     1.082028
      py      :     1.059174
      dz2     :     0.012896  d :     0.083400
      dxz     :     0.022188
      dyz     :     0.011072
      dx2y2   :     0.015600
      dxy     :     0.021643
 18 C s       :     2.873261  s :     2.873261
      pz      :     1.024646  p :     3.109245
      px      :     1.055700
      py      :     1.028900
      dz2     :     0.010814  d :     0.089744
      dxz     :     0.018948
      dyz     :     0.012994
      dx2y2   :     0.025364
      dxy     :     0.021624
 19 C s       :     2.855052  s :     2.855052
      pz      :     1.015955  p :     3.086803
      px      :     1.047121
      py      :     1.023726
      dz2     :     0.017334  d :     0.111391
      dxz     :     0.026099
      dyz     :     0.014790
      dx2y2   :     0.025302
      dxy     :     0.027866
 20 C s       :     2.907717  s :     2.907717
      pz      :     1.088048  p :     3.177214
      px      :     1.029424
      py      :     1.059742
      dz2     :     0.016708  d :     0.102343
      dxz     :     0.021396
      dyz     :     0.017042
      dx2y2   :     0.021982
      dxy     :     0.025216
 21 H s       :     0.900148  s :     0.900148
      pz      :     0.027703  p :     0.067708
      px      :     0.018807
      py      :     0.021197
 22 C s       :     2.828402  s :     2.828402
      pz      :     1.075850  p :     3.114938
      px      :     0.998647
      py      :     1.040441
      dz2     :     0.022546  d :     0.086915
      dxz     :     0.008925
      dyz     :     0.014305
      dx2y2   :     0.021286
      dxy     :     0.019852
 23 H s       :     0.899110  s :     0.899110
      pz      :     0.041454  p :     0.076079
      px      :     0.016180
      py      :     0.018444
 24 H s       :     0.907915  s :     0.907915
      pz      :     0.018455  p :     0.064803
      px      :     0.011570
      py      :     0.034778
 25 C s       :     2.818728  s :     2.818728
      pz      :     1.077859  p :     3.123367
      px      :     1.010327
      py      :     1.035182
      dz2     :     0.021088  d :     0.092966
      dxz     :     0.011809
      dyz     :     0.016599
      dx2y2   :     0.021629
      dxy     :     0.021840
 26 H s       :     0.905644  s :     0.905644
      pz      :     0.039411  p :     0.071767
      px      :     0.015612
      py      :     0.016745
 27 H s       :     0.908923  s :     0.908923
      pz      :     0.021352  p :     0.070269
      px      :     0.014278
      py      :     0.034639
 28 C s       :     2.821190  s :     2.821190
      pz      :     1.066920  p :     3.169169
      px      :     1.033366
      py      :     1.068883
      dz2     :     0.014943  d :     0.077536
      dxz     :     0.007540
      dyz     :     0.020304
      dx2y2   :     0.015465
      dxy     :     0.019283
 29 H s       :     0.904466  s :     0.904466
      pz      :     0.015679  p :     0.070070
      px      :     0.030704
      py      :     0.023687
 30 H s       :     0.907985  s :     0.907985
      pz      :     0.034037  p :     0.066815
      px      :     0.012619
      py      :     0.020158
 31 H s       :     0.906312  s :     0.906312
      pz      :     0.023448  p :     0.063456
      px      :     0.012715
      py      :     0.027293
 32 H s       :     0.888766  s :     0.888766
      pz      :     0.017323  p :     0.071286
      px      :     0.016018
      py      :     0.037946
 33 H s       :     0.892297  s :     0.892297
      pz      :     0.029294  p :     0.072543
      px      :     0.018232
      py      :     0.025018


                      *****************************
                      * MAYER POPULATION ANALYSIS *
                      *****************************

  NA   - Mulliken gross atomic population
  ZA   - Total nuclear charge
  QA   - Mulliken gross atomic charge
  VA   - Mayer's total valence
  BVA  - Mayer's bonded valence
  FA   - Mayer's free valence

  ATOM       NA         ZA         QA         VA         BVA        FA
  0 S     15.8930    16.0000     0.1070     2.5030     2.5030    -0.0000
  1 C      6.1363     6.0000    -0.1363     3.8354     3.8354    -0.0000
  2 C      6.0834     6.0000    -0.0834     3.9874     3.9874    -0.0000
  3 C      5.9817     6.0000     0.0183     3.9474     3.9474     0.0000
  4 C      6.1083     6.0000    -0.1083     3.8888     3.8888     0.0000
  5 H      1.0257     1.0000    -0.0257     1.0150     1.0150     0.0000
  6 C      5.9060     6.0000     0.0940     3.9476     3.9476    -0.0000
  7 H      0.9970     1.0000     0.0030     0.9927     0.9927    -0.0000
  8 H      0.9683     1.0000     0.0317     0.9813     0.9813    -0.0000
  9 C      6.1164     6.0000    -0.1164     4.1048     4.1048     0.0000
 10 H      0.9738     1.0000     0.0262     0.9741     0.9741     0.0000
 11 H      0.9634     1.0000     0.0366     0.9777     0.9777     0.0000
 12 C      6.0067     6.0000    -0.0067     3.9849     3.9849    -0.0000
 13 H      0.9643     1.0000     0.0357     0.9995     0.9995    -0.0000
 14 H      0.9764     1.0000     0.0236     0.9879     0.9879     0.0000
 15 H      0.9797     1.0000     0.0203     0.9935     0.9935    -0.0000
 16 S     15.8773    16.0000     0.1227     2.4857     2.4857    -0.0000
 17 C      6.0928     6.0000    -0.0928     3.8416     3.8416    -0.0000
 18 C      6.0510     6.0000    -0.0510     3.9666     3.9666    -0.0000
 19 C      6.0475     6.0000    -0.0475     4.0430     4.0430    -0.0000
 20 C      6.1769     6.0000    -0.1769     3.9277     3.9277    -0.0000
 21 H      0.9775     1.0000     0.0225     0.9946     0.9946    -0.0000
 22 C      5.9107     6.0000     0.0893     3.9240     3.9240    -0.0000
 23 H      0.9829     1.0000     0.0171     0.9871     0.9871     0.0000
 24 H      0.9773     1.0000     0.0227     1.0146     1.0146     0.0000
 25 C      6.0613     6.0000    -0.0613     4.0841     4.0841    -0.0000
 26 H      0.9763     1.0000     0.0237     0.9780     0.9780    -0.0000
 27 H      0.9764     1.0000     0.0236     0.9845     0.9845    -0.0000
 28 C      6.0193     6.0000    -0.0193     4.0026     4.0026    -0.0000
 29 H      0.9617     1.0000     0.0383     0.9864     0.9864     0.0000
 30 H      0.9778     1.0000     0.0222     0.9929     0.9929    -0.0000
 31 H      0.9786     1.0000     0.0214     0.9874     0.9874    -0.0000
 32 H      0.9397     1.0000     0.0603     1.0032     1.0032    -0.0000
 33 H      0.9345     1.0000     0.0655     0.9941     0.9941    -0.0000

  Mayer bond orders larger than 0.100000
B(  0-S ,  1-C ) :   1.1452 B(  0-S ,  4-C ) :   1.1359 B(  1-C ,  2-C ) :   1.5975 
B(  1-C , 32-H ) :   0.9677 B(  2-C ,  3-C ) :   1.2459 B(  2-C ,  6-C ) :   0.9998 
B(  3-C ,  4-C ) :   1.5613 B(  3-C ,  5-H ) :   1.0152 B(  4-C , 20-C ) :   1.0502 
B(  6-C ,  7-H ) :   0.9522 B(  6-C ,  8-H ) :   0.9409 B(  6-C ,  9-C ) :   1.0687 
B(  9-C , 10-H ) :   0.9543 B(  9-C , 11-H ) :   0.9590 B(  9-C , 12-C ) :   1.0823 
B( 12-C , 13-H ) :   0.9701 B( 12-C , 14-H ) :   0.9721 B( 12-C , 15-H ) :   0.9755 
B( 16-S , 17-C ) :   1.1587 B( 16-S , 20-C ) :   1.1363 B( 17-C , 18-C ) :   1.6131 
B( 17-C , 33-H ) :   0.9610 B( 18-C , 19-C ) :   1.2378 B( 18-C , 21-H ) :   0.9854 
B( 19-C , 20-C ) :   1.5780 B( 19-C , 22-C ) :   1.0547 B( 22-C , 23-H ) :   0.9198 
B( 22-C , 24-H ) :   0.9211 B( 22-C , 25-C ) :   1.0443 B( 25-C , 26-H ) :   0.9560 
B( 25-C , 27-H ) :   0.9544 B( 25-C , 28-C ) :   1.0942 B( 28-C , 29-H ) :   0.9730 
B( 28-C , 30-H ) :   0.9693 B( 28-C , 31-H ) :   0.9706 

-------
TIMINGS
-------

Total SCF time: 0 days 0 hours 0 min 29 sec 

Total time                  ....      29.271 sec
Sum of individual times     ....      28.295 sec  ( 96.7%)

Fock matrix formation       ....      26.518 sec  ( 90.6%)
  XC integration            ....       1.772 sec  (  6.7% of F)
    Basis function eval.    ....       0.239 sec  ( 13.5% of XC)
    Density eval.           ....       0.166 sec  (  9.4% of XC)
    XC-Functional eval.     ....       0.196 sec  ( 11.1% of XC)
    XC-Potential eval.      ....       0.191 sec  ( 10.8% of XC)
Diagonalization             ....       0.137 sec  (  0.5%)
Density matrix formation    ....       0.019 sec  (  0.1%)
Population analysis         ....       0.047 sec  (  0.2%)
Initial guess               ....       0.192 sec  (  0.7%)
Orbital Transformation      ....       0.000 sec  (  0.0%)
Orbital Orthonormalization  ....       0.000 sec  (  0.0%)
DIIS solution               ....       0.138 sec  (  0.5%)
SOSCF solution              ....       0.144 sec  (  0.5%)
Grid generation             ....       1.100 sec  (  3.8%)


-------------------------------------------------------------------------------
                          DFT DISPERSION CORRECTION                            
                                                                               
                              DFTD3 V3.1  Rev 1                                
                              USING zero damping                               
-------------------------------------------------------------------------------
The omegaB97X-D3 functional is recognized. Fit by Chai et al.
Active option DFTDOPT                   ...         3   

molecular C6(AA) [au] = 14148.786255 


            DFT-D V3
 parameters
 s6 scaling factor         :     1.0000 
 rs6 scaling factor        :     1.2810 
 s8 scaling factor         :     1.0000 
 rs8 scaling factor        :     1.0940 
 Damping factor alpha6     :    14.0000 
 Damping factor alpha8     :    16.0000 
 ad hoc parameters k1-k3   :    16.0000     1.3333    -4.0000 

 Edisp/kcal,au: -9.027404238389  -0.014386082838 
 E6   /kcal   :  -4.033456994 
 E8   /kcal   :  -4.993947244 
 % E8         :  55.319858424 

-------------------------   ----------------
Dispersion correction           -0.014386083
-------------------------   ----------------


-------------------------   --------------------
FINAL SINGLE POINT ENERGY     -1339.870169578709
-------------------------   --------------------


                            ***************************************
                            *     ORCA property calculations      *
                            ***************************************

                                    ---------------------
                                    Active property flags
                                    ---------------------
   (+) Dipole Moment


------------------------------------------------------------------------------
                       ORCA ELECTRIC PROPERTIES CALCULATION
------------------------------------------------------------------------------

Dipole Moment Calculation                       ... on
Quadrupole Moment Calculation                   ... off
Polarizability Calculation                      ... off
GBWName                                         ... config_3316.gbw
Electron density file                           ... config_3316.scfp
The origin for moment calculation is the CENTER OF MASS  = (70.737163,  6.659897 164.316866)

-------------
DIPOLE MOMENT
-------------
                                X             Y             Z
Electronic contribution:    -15.75089       4.74671      12.56983
Nuclear contribution   :     15.95170      -4.89698     -12.75041
                        -----------------------------------------
Total Dipole Moment    :      0.20081      -0.15026      -0.18058
                        -----------------------------------------
Magnitude (a.u.)       :      0.30905
Magnitude (Debye)      :      0.78555



--------------------
Rotational spectrum 
--------------------
 
Rotational constants in cm-1:     0.017175     0.008902     0.007637 
Rotational constants in MHz :   514.884072   266.871441   228.960932 

 Dipole components along the rotational axes: 
x,y,z [a.u.] :    -0.025632    -0.173156     0.254704 
x,y,z [Debye]:    -0.065153    -0.440126     0.647406 

 

Timings for individual modules:

Sum of individual times         ...       30.404 sec (=   0.507 min)
GTO integral calculation        ...        0.808 sec (=   0.013 min)   2.7 %
SCF iterations                  ...       29.596 sec (=   0.493 min)  97.3 %
                             ****ORCA TERMINATED NORMALLY****
TOTAL RUN TIME: 0 days 0 hours 0 minutes 31 seconds 96 msec
