
                                 *****************
                                 * O   R   C   A *
                                 *****************

           --- An Ab Initio, DFT and Semiempirical electronic structure package ---

                  #######################################################
                  #                        -***-                        #
                  #          Department of theory and spectroscopy      #
                  #               Directorship: Frank Neese             #
                  #        Max Planck Institute fuer Kohlenforschung    #
                  #                Kaiser Wilhelm Platz 1               #
                  #                 D-45470 Muelheim/Ruhr               #
                  #                      Germany                        #
                  #                                                     #
                  #                  All rights reserved                #
                  #                        -***-                        #
                  #######################################################


                         Program Version 4.2.1 -  RELEASE  -


 With contributions from (in alphabetic order):
   Daniel Aravena         : Magnetic Suceptibility
   Michael Atanasov       : Ab Initio Ligand Field Theory (pilot matlab implementation)
   Alexander A. Auer      : GIAO ZORA, VPT2
   Ute Becker             : Parallelization
   Giovanni Bistoni       : ED, misc. LED, open-shell LED, HFLD
   Martin Brehm           : Molecular dynamics
   Dmytro Bykov           : SCF Hessian
   Vijay G. Chilkuri      : MRCI spin determinant printing, contributions to CSF-ICE
   Dipayan Datta          : RHF DLPNO-CCSD density
   Achintya Kumar Dutta   : EOM-CC, STEOM-CC
   Dmitry Ganyushin       : Spin-Orbit,Spin-Spin,Magnetic field MRCI
   Miquel Garcia          : C-PCM Hessian, Gaussian charge scheme
   Yang Guo               : DLPNO-NEVPT2, CIM, IAO-localization
   Andreas Hansen         : Spin unrestricted coupled pair/coupled cluster methods
   Benjamin Helmich-Paris : CASSCF linear response (MC-RPA)
   Lee Huntington         : MR-EOM, pCC
   Robert Izsak           : Overlap fitted RIJCOSX, COSX-SCS-MP3, EOM
   Christian Kollmar      : KDIIS, OOCD, Brueckner-CCSD(T), CCSD density
   Simone Kossmann        : Meta GGA functionals, TD-DFT gradient, OOMP2, MP2 Hessian
   Martin Krupicka        : AUTO-CI
   Lucas Lang             : DCDCAS
   Dagmar Lenk            : GEPOL surface, SMD
   Dimitrios Liakos       : Extrapolation schemes; Compound Job, initial MDCI parallelization
   Dimitrios Manganas     : Further ROCIS development; embedding schemes
   Dimitrios Pantazis     : SARC Basis sets
   Taras Petrenko         : DFT Hessian,TD-DFT gradient, ASA, ECA, R-Raman, ABS, FL, XAS/XES, NRVS
   Peter Pinski           : DLPNO-MP2, DLPNO-MP2 Gradient
   Christoph Reimann      : Effective Core Potentials
   Marius Retegan         : Local ZFS, SOC
   Christoph Riplinger    : Optimizer, TS searches, QM/MM, DLPNO-CCSD(T), (RO)-DLPNO pert. Triples
   Tobias Risthaus        : Range-separated hybrids, TD-DFT gradient, RPA, STAB
   Michael Roemelt        : Original ROCIS implementation
   Masaaki Saitow         : Open-shell DLPNO-CCSD energy and density
   Barbara Sandhoefer     : DKH picture change effects
   Avijit Sen             : IP-ROCIS
   Kantharuban Sivalingam : CASSCF convergence, NEVPT2, FIC-MRCI
   Bernardo de Souza      : ESD, SOC TD-DFT
   Georgi Stoychev        : AutoAux, RI-MP2 NMR
   Willem Van den Heuvel  : Paramagnetic NMR
   Boris Wezisla          : Elementary symmetry handling
   Frank Wennmohs         : Technical directorship


 We gratefully acknowledge several colleagues who have allowed us to
 interface, adapt or use parts of their codes:
   Stefan Grimme, W. Hujo, H. Kruse,             : VdW corrections, initial TS optimization,
                  C. Bannwarth                     DFT functionals, gCP, sTDA/sTD-DF
   Ed Valeev, F. Pavosevic, A. Kumar             : LibInt (2-el integral package), F12 methods
   Garnet Chan, S. Sharma, J. Yang, R. Olivares  : DMRG
   Ulf Ekstrom                                   : XCFun DFT Library
   Mihaly Kallay                                 : mrcc  (arbitrary order and MRCC methods)
   Andreas Klamt, Michael Diedenhofen            : otool_cosmo (COSMO solvation model)
   Jiri Pittner, Ondrej Demel                    : Mk-CCSD
   Frank Weinhold                                : gennbo (NPA and NBO analysis)
   Christopher J. Cramer and Donald G. Truhlar   : smd solvation model
   Lars Goerigk                                  : TD-DFT with DH, B97 family of functionals
   V. Asgeirsson, H. Jonsson                     : NEB implementation
   FAccTs GmbH                                   : IRC, NEB, NEB-TS, Multilevel, MM, QM/MM, CI optimization
   S Lehtola, MJT Oliveira, MAL Marques          : LibXC Library


 Your calculation uses the libint2 library for the computation of 2-el integrals
 For citations please refer to: http://libint.valeyev.net

 Your ORCA version has been built with support for libXC version: 4.2.3
 For citations please refer to: https://tddft.org/programs/libxc/

 This ORCA versions uses:
   CBLAS   interface :  Fast vector & matrix operations
   LAPACKE interface :  Fast linear algebra routines
   SCALAPACK package :  Parallel linear algebra routines


Your calculation utilizes the atom-pairwise dispersion correction
with the zero-damping scheme (D30)
Cite in your paper:
S.Grimme, J.Antony, S.Ehrlich and H.Krieg, J.Chem.Phys., 132, (2010), 154104 
   

XCFun DFT library Copyright 2009-2010 Ulf Ekstrom and contributors.
See http://admol.org/xcfun for more information. This is free soft-
ware; see the source code for copying conditions. There is ABSOLUTELY
NO WARRANTY; not even for MERCHANTABILITY or FITNESS FOR A PARTICULAR
PURPOSE. For details see the documentation. Scientific users of this 
library should cite U. Ekstrom, L. Visscher, R. Bast, A. J. Thorvald-
sen and K. Ruud; J.Chem.Theor.Comp. 2010, DOI: 10.1021/ct100117s
XCFun Version 0.99 
----- Orbital basis set information -----
Your calculation utilizes the basis: def2-SVP
   F. Weigend and R. Ahlrichs, Phys. Chem. Chem. Phys. 7, 3297 (2005).

================================================================================
                                        WARNINGS
                       Please study these warnings very carefully!
================================================================================


INFO   : the flag for use of LIBINT has been found!

================================================================================
                                       INPUT FILE
================================================================================
NAME = config_7758.inp
|  1> ! wB97X-D3 SP def2-SVP
|  2> %pal
|  3> nprocs 16
|  4> end
|  5> 
|  6> * xyz 0 1
|  7> S 	 -38.0806 	 53.7585 	 109.732 	 
|  8> C 	 -39.7689 	 54.3026 	 109.936 	 
|  9> C 	 -40.5548 	 53.8785 	 108.93 	 
| 10> C 	 -39.7895 	 53.3287 	 107.865 	 
| 11> C 	 -38.4383 	 53.1013 	 108.188 	 
| 12> H 	 -40.2411 	 52.891 	 107.018 	 
| 13> C 	 -42.1837 	 54.0366 	 108.832 	 
| 14> H 	 -42.561 	 53.7672 	 107.794 	 
| 15> H 	 -42.4479 	 55.1149 	 109 	 
| 16> C 	 -42.9178 	 53.1508 	 109.825 	 
| 17> H 	 -42.7184 	 52.0364 	 109.593 	 
| 18> H 	 -42.5393 	 53.3163 	 110.79 	 
| 19> C 	 -44.4091 	 53.5353 	 109.867 	 
| 20> H 	 -45.0023 	 52.6758 	 110.139 	 
| 21> H 	 -44.5394 	 54.3797 	 110.65 	 
| 22> H 	 -44.7507 	 53.8574 	 108.864 	 
| 23> S 	 -36.5343 	 51.1504 	 107.66 	 
| 24> C 	 -35.7128 	 51.1738 	 106.172 	 
| 25> C 	 -35.9961 	 52.3058 	 105.451 	 
| 26> C 	 -37.0419 	 53.07 	 106.021 	 
| 27> C 	 -37.4598 	 52.6223 	 107.238 	 
| 28> H 	 -35.5307 	 52.3908 	 104.411 	 
| 29> C 	 -37.5247 	 54.3314 	 105.29 	 
| 30> H 	 -38.0775 	 54.9012 	 106.012 	 
| 31> H 	 -38.3712 	 54.0983 	 104.624 	 
| 32> C 	 -36.3697 	 55.0117 	 104.479 	 
| 33> H 	 -36.5149 	 54.5319 	 103.519 	 
| 34> H 	 -35.4572 	 54.7649 	 105.012 	 
| 35> C 	 -36.389 	 56.549 	 104.298 	 
| 36> H 	 -35.538 	 56.9414 	 103.783 	 
| 37> H 	 -36.4594 	 57.091 	 105.242 	 
| 38> H 	 -37.2403 	 56.8842 	 103.666 	 
| 39> H 	 -40.2961 	 54.6896 	 110.819 	 
| 40> H 	 -34.9249 	 50.4329 	 105.943 	 
| 41> *
| 42> 
| 43>                          ****END OF INPUT****
================================================================================

                       ****************************
                       * Single Point Calculation *
                       ****************************

---------------------------------
CARTESIAN COORDINATES (ANGSTROEM)
---------------------------------
  S    -38.080600   53.758500  109.732000
  C    -39.768900   54.302600  109.936000
  C    -40.554800   53.878500  108.930000
  C    -39.789500   53.328700  107.865000
  C    -38.438300   53.101300  108.188000
  H    -40.241100   52.891000  107.018000
  C    -42.183700   54.036600  108.832000
  H    -42.561000   53.767200  107.794000
  H    -42.447900   55.114900  109.000000
  C    -42.917800   53.150800  109.825000
  H    -42.718400   52.036400  109.593000
  H    -42.539300   53.316300  110.790000
  C    -44.409100   53.535300  109.867000
  H    -45.002300   52.675800  110.139000
  H    -44.539400   54.379700  110.650000
  H    -44.750700   53.857400  108.864000
  S    -36.534300   51.150400  107.660000
  C    -35.712800   51.173800  106.172000
  C    -35.996100   52.305800  105.451000
  C    -37.041900   53.070000  106.021000
  C    -37.459800   52.622300  107.238000
  H    -35.530700   52.390800  104.411000
  C    -37.524700   54.331400  105.290000
  H    -38.077500   54.901200  106.012000
  H    -38.371200   54.098300  104.624000
  C    -36.369700   55.011700  104.479000
  H    -36.514900   54.531900  103.519000
  H    -35.457200   54.764900  105.012000
  C    -36.389000   56.549000  104.298000
  H    -35.538000   56.941400  103.783000
  H    -36.459400   57.091000  105.242000
  H    -37.240300   56.884200  103.666000
  H    -40.296100   54.689600  110.819000
  H    -34.924900   50.432900  105.943000

----------------------------
CARTESIAN COORDINATES (A.U.)
----------------------------
  NO LB      ZA    FRAG     MASS         X           Y           Z
   0 S    16.0000    0    32.060  -71.961905  101.588842  207.363428
   1 C     6.0000    0    12.011  -75.152330  102.617042  207.748932
   2 C     6.0000    0    12.011  -76.637465  101.815610  205.847868
   3 C     6.0000    0    12.011  -75.191258  100.776638  203.835309
   4 C     6.0000    0    12.011  -72.637860  100.346914  204.445691
   5 H     1.0000    0     1.008  -76.044658   99.949505  202.234711
   6 C     6.0000    0    12.011  -79.715640  102.114375  205.662675
   7 H     1.0000    0     1.008  -80.428634  101.605283  203.701139
   8 H     1.0000    0     1.008  -80.214906  104.152067  205.980149
   9 C     6.0000    0    12.011  -81.102888  100.440456  207.539173
  10 H     1.0000    0     1.008  -80.726077   98.334545  207.100756
  11 H     1.0000    0     1.008  -80.387627  100.753205  209.362758
  12 C     6.0000    0    12.011  -83.921037  101.167055  207.618541
  13 H     1.0000    0     1.008  -85.042022   99.542836  208.132547
  14 H     1.0000    0     1.008  -84.167268  102.762740  209.098197
  15 H     1.0000    0     1.008  -84.566567  101.775736  205.723146
  16 S    16.0000    0    32.060  -69.039821   96.660248  203.447916
  17 C     6.0000    0    12.011  -67.487411   96.704467  200.636003
  18 C     6.0000    0    12.011  -68.022771   98.843637  199.273511
  19 C     6.0000    0    12.011  -69.999046  100.287766  200.350654
  20 C     6.0000    0    12.011  -70.788763   99.441736  202.650451
  21 H     1.0000    0     1.008  -67.143292   99.004264  197.308195
  22 C     6.0000    0    12.011  -70.911406  102.671466  198.969265
  23 H     1.0000    0     1.008  -71.956047  103.748232  200.333647
  24 H     1.0000    0     1.008  -72.511059  102.230971  197.710707
  25 C     6.0000    0    12.011  -68.728773  103.957047  197.436697
  26 H     1.0000    0     1.008  -69.003161  103.050357  195.622560
  27 H     1.0000    0     1.008  -67.004397  103.490663  198.443921
  28 C     6.0000    0    12.011  -68.765244  106.862123  197.094656
  29 H     1.0000    0     1.008  -67.157087  107.603652  196.121447
  30 H     1.0000    0     1.008  -68.898281  107.886355  198.878558
  31 H     1.0000    0     1.008  -70.373968  107.495559  195.900349
  32 H     1.0000    0     1.008  -76.148593  103.348366  209.417560
  33 H     1.0000    0     1.008  -65.998496   95.304369  200.203256

--------------------------------
INTERNAL COORDINATES (ANGSTROEM)
--------------------------------
 S      0   0   0     0.000000000000     0.00000000     0.00000000
 C      1   0   0     1.785502086249     0.00000000     0.00000000
 C      2   1   0     1.345189808168   111.77154425     0.00000000
 C      3   2   1     1.422036965061   111.56527409   349.28006800
 C      4   3   2     1.407757507527   114.02705970    11.92747671
 H      4   3   2     1.054956326110   122.09530211   176.09594491
 C      3   2   1     1.639486145108   126.49535266   173.26578362
 H      7   3   2     1.136827009707   111.19062186   169.27749073
 H      7   3   2     1.122834150710   108.50832538    52.31780690
 C      7   3   2     1.519734664341   112.62272986   289.80799895
 H     10   7   3     1.155626116008   110.33743105   296.49425457
 H     10   7   3     1.049703529574   109.54862100    52.73409532
 C     10   7   3     1.540642703549   109.87203597   169.44517266
 H     13  10   7     1.079171205138   109.88770456   151.71767721
 H     13  10   7     1.158912615343   108.00450573   272.17722201
 H     13  10   7     1.107451114045   110.27181008    34.15082789
 S      5   4   3     2.776690621945   136.72093606   141.00671607
 C     17   5   4     1.699868762581   119.22011905    80.90192714
 C     18  17   5     1.371686513020   111.81832245     7.69686530
 C     19  18  17     1.415132248237   112.74129442   351.13673388
 C     20  19  18     1.362411354915   114.14361627     6.90272394
 H     19  18  17     1.142550725351   117.11118913   182.91036132
 C     20  19  18     1.535769123273   118.95658618   183.09428043
 H     23  20  19     1.073100125804   106.13009300   196.97110670
 H     23  20  19     1.102022622272   110.81818986    92.65914512
 C     23  20  19     1.566701659538   111.79467142   329.29994753
 H     26  23  20     1.083000960295    99.65079177    92.37600359
 H     26  23  20     1.085198364356   105.47980701   331.18121719
 C     26  23  20     1.548039011136   118.85177725   211.14218528
 H     29  26  23     1.069300593846   114.25594079   176.58986776
 H     29  26  23     1.090805280515   113.14454217    54.34403911
 H     29  26  23     1.111977846002   112.04606004   293.24615737
 H      2   1   3     1.098816563399   130.75368042   163.30286073
 H     18  17   5     1.105513554869   121.09967658   177.91264040

---------------------------
INTERNAL COORDINATES (A.U.)
---------------------------
 S      0   0   0     0.000000000000     0.00000000     0.00000000
 C      1   0   0     3.374109954556     0.00000000     0.00000000
 C      2   1   0     2.542040335580   111.77154425     0.00000000
 C      3   2   1     2.687260416278   111.56527409   349.28006800
 C      4   3   2     2.660276152199   114.02705970    11.92747671
 H      4   3   2     1.993578539596   122.09530211   176.09594491
 C      3   2   1     3.098179814612   126.49535266   173.26578362
 H      7   3   2     2.148291709991   111.19062186   169.27749073
 H      7   3   2     2.121849038655   108.50832538    52.31780690
 C      7   3   2     2.871882311831   112.62272986   289.80799895
 H     10   7   3     2.183816872462   110.33743105   296.49425457
 H     10   7   3     1.983652192705   109.54862100    52.73409532
 C     10   7   3     2.911392779932   109.87203597   169.44517266
 H     13  10   7     2.039338029325   109.88770456   151.71767721
 H     13  10   7     2.190027456144   108.00450573   272.17722201
 H     13  10   7     2.092779312251   110.27181008    34.15082789
 S      5   4   3     5.247184834104   136.72093606   141.00671607
 C     17   5   4     3.212286424886   119.22011905    80.90192714
 C     18  17   5     2.592111851201   111.81832245     7.69686530
 C     19  18  17     2.674212392448   112.74129442   351.13673388
 C     20  19  18     2.574584342533   114.14361627     6.90272394
 H     19  18  17     2.159107965026   117.11118913   182.91036132
 C     20  19  18     2.902183047919   118.95658618   183.09428043
 H     23  20  19     2.027865352045   106.13009300   196.97110670
 H     23  20  19     2.082520949480   110.81818986    92.65914512
 C     23  20  19     2.960637070087   111.79467142   329.29994753
 H     26  23  20     2.046575217731    99.65079177    92.37600359
 H     26  23  20     2.050727709611   105.47980701   331.18121719
 C     26  23  20     2.925369775674   118.85177725   211.14218528
 H     29  26  23     2.020685277209   114.25594079   176.58986776
 H     29  26  23     2.061323245609   113.14454217    54.34403911
 H     29  26  23     2.101333595932   112.04606004   293.24615737
 H      2   1   3     2.076462376241   130.75368042   163.30286073
 H     18  17   5     2.089117856041   121.09967658   177.91264040

---------------------
BASIS SET INFORMATION
---------------------
There are 3 groups of distinct atoms

 Group   1 Type S   : 10s7p1d contracted to 4s3p1d pattern {5311/511/1}
 Group   2 Type C   : 7s4p1d contracted to 3s2p1d pattern {511/31/1}
 Group   3 Type H   : 4s1p contracted to 2s1p pattern {31/1}

Atom   0S    basis set group =>   1
Atom   1C    basis set group =>   2
Atom   2C    basis set group =>   2
Atom   3C    basis set group =>   2
Atom   4C    basis set group =>   2
Atom   5H    basis set group =>   3
Atom   6C    basis set group =>   2
Atom   7H    basis set group =>   3
Atom   8H    basis set group =>   3
Atom   9C    basis set group =>   2
Atom  10H    basis set group =>   3
Atom  11H    basis set group =>   3
Atom  12C    basis set group =>   2
Atom  13H    basis set group =>   3
Atom  14H    basis set group =>   3
Atom  15H    basis set group =>   3
Atom  16S    basis set group =>   1
Atom  17C    basis set group =>   2
Atom  18C    basis set group =>   2
Atom  19C    basis set group =>   2
Atom  20C    basis set group =>   2
Atom  21H    basis set group =>   3
Atom  22C    basis set group =>   2
Atom  23H    basis set group =>   3
Atom  24H    basis set group =>   3
Atom  25C    basis set group =>   2
Atom  26H    basis set group =>   3
Atom  27H    basis set group =>   3
Atom  28C    basis set group =>   2
Atom  29H    basis set group =>   3
Atom  30H    basis set group =>   3
Atom  31H    basis set group =>   3
Atom  32H    basis set group =>   3
Atom  33H    basis set group =>   3


           ************************************************************
           *        Program running with 16 parallel MPI-processes    *
           *              working on a common directory               *
           ************************************************************
------------------------------------------------------------------------------
                           ORCA GTO INTEGRAL CALCULATION
------------------------------------------------------------------------------

                         BASIS SET STATISTICS AND STARTUP INFO

 # of primitive gaussian shells          ...  294
 # of primitive gaussian functions       ...  534
 # of contracted shells                  ...  154
 # of contracted basis functions         ...  322
 Highest angular momentum                ...    2
 Maximum contraction depth               ...    5
 Integral package used                   ... LIBINT
 Integral threshhold            Thresh   ...  1.000e-10
 Primitive cut-off              TCut     ...  1.000e-11


------------------------------ INTEGRAL EVALUATION ----------------------------


 * One electron integrals 
 Pre-screening matrix                    ... done
 Shell pair data                         ... done (   0.003 sec)



           ************************************************************
           *        Program running with 16 parallel MPI-processes    *
           *              working on a common directory               *
           ************************************************************
-------------------------------------------------------------------------------
                                 ORCA SCF
-------------------------------------------------------------------------------

------------
SCF SETTINGS
------------
Hamiltonian:
 Density Functional     Method          .... DFT(GTOs)
 Exchange Functional    Exchange        .... WB97X-D3
 Correlation Functional Correlation     .... WB97X-D3
 Gradients option       PostSCFGGA      .... off
 Hybrid DFT is turned on
   Fraction HF Exchange ScalHFX         ....  0.195728
   Scaling of DF-GGA-X  ScalDFX         ....  0.000000
   Scaling of DF-GGA-C  ScalDFC         ....  1.000000
   Scaling of DF-LDA-C  ScalLDAC        ....  1.000000
   Perturbative correction              ....  0.000000
   Density functional embedding theory  .... OFF
 Long-range corrected/Screened/Range-Separated Hybrid DFT is turned on
   Amount of maximum screened exact exchange              ....  0.804272
   Range separation parameter mu (erf(mu*r12)/r12)        ....  0.250000


General Settings:
 Integral files         IntName         .... config_7758
 Hartree-Fock type      HFTyp           .... RHF
 Total Charge           Charge          ....    0
 Multiplicity           Mult            ....    1
 Number of Electrons    NEL             ....  134
 Basis Dimension        Dim             ....  322
 Nuclear Repulsion      ENuc            ....   1255.3297809006 Eh

Convergence Acceleration:
 DIIS                   CNVDIIS         .... on
   Start iteration      DIISMaxIt       ....    12
   Startup error        DIISStart       ....  0.200000
   # of expansion vecs  DIISMaxEq       ....     5
   Bias factor          DIISBfac        ....   1.050
   Max. coefficient     DIISMaxC        ....  10.000
 Newton-Raphson         CNVNR           .... off
 SOSCF                  CNVSOSCF        .... on
   Start iteration      SOSCFMaxIt      ....   150
   Startup grad/error   SOSCFStart      ....  0.003300
 Level Shifting         CNVShift        .... on
   Level shift para.    LevelShift      ....    0.2500
   Turn off err/grad.   ShiftErr        ....    0.0010
 Zerner damping         CNVZerner       .... off
 Static damping         CNVDamp         .... on
   Fraction old density DampFac         ....    0.7000
   Max. Damping (<1)    DampMax         ....    0.9800
   Min. Damping (>=0)   DampMin         ....    0.0000
   Turn off err/grad.   DampErr         ....    0.1000
 Fernandez-Rico         CNVRico         .... off

SCF Procedure:
 Maximum # iterations   MaxIter         ....   125
 SCF integral mode      SCFMode         .... Direct
   Integral package                     .... LIBINT
 Reset frequency        DirectResetFreq ....    20
 Integral Threshold     Thresh          ....  1.000e-10 Eh
 Primitive CutOff       TCut            ....  1.000e-11 Eh

Convergence Tolerance:
 Convergence Check Mode ConvCheckMode   .... Total+1el-Energy
 Convergence forced     ConvForced      .... 0
 Energy Change          TolE            ....  1.000e-06 Eh
 1-El. energy change                    ....  1.000e-03 Eh
 Orbital Gradient       TolG            ....  5.000e-05
 Orbital Rotation angle TolX            ....  5.000e-05
 DIIS Error             TolErr          ....  1.000e-06


Diagonalization of the overlap matrix:
Smallest eigenvalue                        ... 6.671e-04
Time for diagonalization                   ...    0.015 sec
Threshold for overlap eigenvalues          ... 1.000e-08
Number of eigenvalues below threshold      ... 0
Time for construction of square roots      ...    0.029 sec
Total time needed                          ...    0.045 sec

-------------------
DFT GRID GENERATION
-------------------

General Integration Accuracy     IntAcc      ...  4.340
Radial Grid Type                 RadialGrid  ... Gauss-Chebyshev
Angular Grid (max. acc.)         AngularGrid ... Lebedev-110
Angular grid pruning method      GridPruning ... 3 (G Style)
Weight generation scheme         WeightScheme... Becke
Basis function cutoff            BFCut       ...    1.0000e-10
Integration weight cutoff        WCut        ...    1.0000e-14
Grids for H and He will be reduced by one unit

# of grid points (after initial pruning)     ...  41088 (   0.0 sec)
# of grid points (after weights+screening)   ...  37154 (   0.0 sec)
nearest neighbour list constructed           ...    0.0 sec
Grid point re-assignment to atoms done       ...    0.0 sec
Grid point division into batches done        ...    0.0 sec
Reduced shell lists constructed in    0.1 sec

Total number of grid points                  ...    37154
Total number of batches                      ...      600
Average number of points per batch           ...       61
Average number of grid points per atom       ...     1093
Average number of shells per batch           ...    75.23 (48.85%)
Average number of basis functions per batch  ...   148.41 (46.09%)
Average number of large shells per batch     ...    47.26 (62.82%)
Average number of large basis fcns per batch ...    96.95 (65.32%)
Maximum spatial batch extension              ...  15.72, 23.47, 16.17 au
Average spatial batch extension              ...   0.21,  0.24,  0.21 au

Time for grid setup =    0.217 sec

------------------------------
INITIAL GUESS: MODEL POTENTIAL
------------------------------
Loading Hartree-Fock densities                     ... done
Calculating cut-offs                               ... done
Setting up the integral package                    ... done
Initializing the effective Hamiltonian             ... done
Starting the Coulomb interaction                   ... done (   0.0 sec)
Reading the grid                                   ... done
Mapping shells                                     ... done
Starting the XC term evaluation                    ... done (   0.0 sec)
  promolecular density results
     # of electrons  =    133.994518747
     EX              =   -126.678794788
     EC              =     -4.611256872
     EX+EC           =   -131.290051660
Transforming the Hamiltonian                       ... done (   0.0 sec)
Diagonalizing the Hamiltonian                      ... done (   0.0 sec)
Back transforming the eigenvectors                 ... done (   0.0 sec)
Now organizing SCF variables                       ... done
                      ------------------
                      INITIAL GUESS DONE (   0.4 sec)
                      ------------------
--------------
SCF ITERATIONS
--------------
ITER       Energy         Delta-E        Max-DP      RMS-DP      [F,P]     Damp
               ***  Starting incremental Fock matrix formation  ***
  0  -1339.4194749938   0.000000000000 0.06316563  0.00155263  0.1587491 0.7000
  1  -1339.6035998381  -0.184124844266 0.04258267  0.00113717  0.0963842 0.7000
                               ***Turning on DIIS***
  2  -1339.6929749191  -0.089375081050 0.07876223  0.00214029  0.0503125 0.0000
  3  -1339.8274961797  -0.134521260583 0.04421637  0.00096502  0.0420894 0.0000
  4  -1339.8565508076  -0.029054627913 0.00772093  0.00020482  0.0077776 0.0000
                      *** Initiating the SOSCF procedure ***
                           *** Shutting down DIIS ***
                      *** Re-Reading the Fockian *** 
                      *** Removing any level shift *** 
ITER      Energy       Delta-E        Grad      Rot      Max-DP    RMS-DP
  5  -1339.85747810  -0.0009272935  0.001616  0.001616  0.003405  0.000101
               *** Restarting incremental Fock matrix formation ***
  6  -1339.85766877  -0.0001906703  0.001255  0.003443  0.002275  0.000063
  7  -1339.85772951  -0.0000607346  0.000686  0.004200  0.002700  0.000062
  8  -1339.85774506  -0.0000155514  0.000468  0.000925  0.000774  0.000021
  9  -1339.85775002  -0.0000049615  0.000146  0.000454  0.000352  0.000009
 10  -1339.85775049  -0.0000004736  0.000084  0.000250  0.000147  0.000004
                 **** Energy Check signals convergence ****
              ***Rediagonalizing the Fockian in SOSCF/NRSCF***

               *****************************************************
               *                     SUCCESS                       *
               *           SCF CONVERGED AFTER  11 CYCLES          *
               *****************************************************

Setting up the final grid:

General Integration Accuracy     IntAcc      ...  4.670
Radial Grid Type                 RadialGrid  ... Gauss-Chebyshev
Angular Grid (max. acc.)         AngularGrid ... Lebedev-302
Angular grid pruning method      GridPruning ... 3 (G Style)
Weight generation scheme         WeightScheme... Becke
Basis function cutoff            BFCut       ...    1.0000e-10
Integration weight cutoff        WCut        ...    1.0000e-14
Grids for H and He will be reduced by one unit

# of grid points (after initial pruning)     ... 161752 (   0.0 sec)
# of grid points (after weights+screening)   ... 143549 (   0.1 sec)
nearest neighbour list constructed           ...    0.0 sec
Grid point re-assignment to atoms done       ...    0.0 sec
Grid point division into batches done        ...    0.5 sec
Reduced shell lists constructed in    0.6 sec

Total number of grid points                  ...   143549
Total number of batches                      ...     2258
Average number of points per batch           ...       63
Average number of grid points per atom       ...     4222
Average number of shells per batch           ...    68.48 (44.47%)
Average number of basis functions per batch  ...   134.73 (41.84%)
Average number of large shells per batch     ...    41.76 (60.98%)
Average number of large basis fcns per batch ...    85.65 (63.57%)
Maximum spatial batch extension              ...  12.23, 15.35, 14.47 au
Average spatial batch extension              ...   0.14,  0.16,  0.14 au

Final grid set up in    0.9 sec
Final integration                            ... done (   0.4 sec)
Change in XC energy                          ...     0.006391029
Integrated number of electrons               ...   133.999891059
Previous integrated no of electrons          ...   134.004576601

----------------
TOTAL SCF ENERGY
----------------

Total Energy       :        -1339.85135971 Eh          -36459.20905 eV

Components:
Nuclear Repulsion  :         1255.32978090 Eh           34159.25996 eV
Electronic Energy  :        -2595.18114061 Eh          -70618.46901 eV
One Electron Energy:        -4327.41395960 Eh         -117754.92039 eV
Two Electron Energy:         1732.23281900 Eh           47136.45138 eV

Virial components:
Potential Energy   :        -2671.15503492 Eh          -72685.82378 eV
Kinetic Energy     :         1331.30367521 Eh           36226.61473 eV
Virial Ratio       :            2.00642054


DFT components:
N(Alpha)           :       66.999945529644 electrons
N(Beta)            :       66.999945529644 electrons
N(Total)           :      133.999891059288 electrons
E(XC)              :      -94.198384533533 Eh       
DFET-embed. en.    :        0.000000000000 Eh       

---------------
SCF CONVERGENCE
---------------

  Last Energy change         ...   -2.4351e-07  Tolerance :   1.0000e-06
  Last MAX-Density change    ...    3.5574e-05  Tolerance :   1.0000e-05
  Last RMS-Density change    ...    6.9087e-07  Tolerance :   1.0000e-06
  Last Orbital Gradient      ...    7.3946e-06  Tolerance :   5.0000e-05
  Last Orbital Rotation      ...    2.1644e-05  Tolerance :   5.0000e-05

             **** THE GBW FILE WAS UPDATED (config_7758.gbw) ****
             **** DENSITY FILE WAS UPDATED (config_7758.scfp) ****
             **** ENERGY FILE WAS UPDATED (config_7758.en.tmp) ****
             **** THE GBW FILE WAS UPDATED (config_7758.gbw) ****
             **** DENSITY FILE WAS UPDATED (config_7758.scfp) ****
----------------
ORBITAL ENERGIES
----------------

  NO   OCC          E(Eh)            E(eV) 
   0   2.0000     -88.970824     -2421.0192 
   1   2.0000     -88.959747     -2420.7178 
   2   2.0000     -10.328655      -281.0570 
   3   2.0000     -10.323458      -280.9156 
   4   2.0000     -10.315334      -280.6945 
   5   2.0000     -10.313068      -280.6328 
   6   2.0000     -10.310422      -280.5608 
   7   2.0000     -10.301906      -280.3291 
   8   2.0000     -10.301612      -280.3211 
   9   2.0000     -10.293105      -280.0896 
  10   2.0000     -10.290066      -280.0069 
  11   2.0000     -10.289336      -279.9871 
  12   2.0000     -10.288742      -279.9709 
  13   2.0000     -10.288555      -279.9658 
  14   2.0000     -10.288411      -279.9619 
  15   2.0000     -10.277574      -279.6670 
  16   2.0000      -8.085200      -220.0095 
  17   2.0000      -8.075452      -219.7442 
  18   2.0000      -6.043825      -164.4608 
  19   2.0000      -6.039717      -164.3491 
  20   2.0000      -6.035881      -164.2447 
  21   2.0000      -6.033778      -164.1874 
  22   2.0000      -6.029853      -164.0807 
  23   2.0000      -6.026320      -163.9845 
  24   2.0000      -1.009134       -27.4599 
  25   2.0000      -0.987535       -26.8722 
  26   2.0000      -0.908343       -24.7173 
  27   2.0000      -0.903236       -24.5783 
  28   2.0000      -0.872193       -23.7336 
  29   2.0000      -0.849294       -23.1105 
  30   2.0000      -0.841620       -22.9016 
  31   2.0000      -0.807543       -21.9744 
  32   2.0000      -0.781742       -21.2723 
  33   2.0000      -0.773852       -21.0576 
  34   2.0000      -0.706582       -19.2271 
  35   2.0000      -0.701478       -19.0882 
  36   2.0000      -0.692665       -18.8484 
  37   2.0000      -0.648389       -17.6436 
  38   2.0000      -0.633589       -17.2408 
  39   2.0000      -0.617223       -16.7955 
  40   2.0000      -0.598824       -16.2948 
  41   2.0000      -0.572045       -15.5661 
  42   2.0000      -0.564599       -15.3635 
  43   2.0000      -0.559890       -15.2354 
  44   2.0000      -0.523643       -14.2491 
  45   2.0000      -0.515854       -14.0371 
  46   2.0000      -0.512885       -13.9563 
  47   2.0000      -0.508760       -13.8441 
  48   2.0000      -0.500548       -13.6206 
  49   2.0000      -0.494768       -13.4633 
  50   2.0000      -0.486840       -13.2476 
  51   2.0000      -0.480130       -13.0650 
  52   2.0000      -0.470420       -12.8008 
  53   2.0000      -0.469033       -12.7630 
  54   2.0000      -0.456642       -12.4259 
  55   2.0000      -0.448494       -12.2042 
  56   2.0000      -0.446296       -12.1443 
  57   2.0000      -0.439835       -11.9685 
  58   2.0000      -0.428448       -11.6587 
  59   2.0000      -0.420847       -11.4518 
  60   2.0000      -0.416660       -11.3379 
  61   2.0000      -0.416332       -11.3290 
  62   2.0000      -0.413058       -11.2399 
  63   2.0000      -0.343436        -9.3454 
  64   2.0000      -0.334041        -9.0897 
  65   2.0000      -0.328850        -8.9485 
  66   2.0000      -0.299228        -8.1424 
  67   0.0000       0.035907         0.9771 
  68   0.0000       0.065473         1.7816 
  69   0.0000       0.111227         3.0266 
  70   0.0000       0.128687         3.5018 
  71   0.0000       0.131455         3.5771 
  72   0.0000       0.133266         3.6263 
  73   0.0000       0.147509         4.0139 
  74   0.0000       0.152596         4.1524 
  75   0.0000       0.160466         4.3665 
  76   0.0000       0.168345         4.5809 
  77   0.0000       0.172057         4.6819 
  78   0.0000       0.182204         4.9580 
  79   0.0000       0.189695         5.1619 
  80   0.0000       0.195550         5.3212 
  81   0.0000       0.208087         5.6623 
  82   0.0000       0.212849         5.7919 
  83   0.0000       0.213909         5.8208 
  84   0.0000       0.216131         5.8812 
  85   0.0000       0.225349         6.1320 
  86   0.0000       0.233409         6.3514 
  87   0.0000       0.238744         6.4965 
  88   0.0000       0.244674         6.6579 
  89   0.0000       0.251670         6.8483 
  90   0.0000       0.255874         6.9627 
  91   0.0000       0.267007         7.2656 
  92   0.0000       0.272724         7.4212 
  93   0.0000       0.290176         7.8961 
  94   0.0000       0.300982         8.1901 
  95   0.0000       0.310435         8.4474 
  96   0.0000       0.321946         8.7606 
  97   0.0000       0.331173         9.0117 
  98   0.0000       0.339096         9.2273 
  99   0.0000       0.372474        10.1355 
 100   0.0000       0.385275        10.4839 
 101   0.0000       0.393767        10.7149 
 102   0.0000       0.416357        11.3297 
 103   0.0000       0.420187        11.4339 
 104   0.0000       0.432926        11.7805 
 105   0.0000       0.455963        12.4074 
 106   0.0000       0.462915        12.5966 
 107   0.0000       0.483103        13.1459 
 108   0.0000       0.492491        13.4013 
 109   0.0000       0.500362        13.6155 
 110   0.0000       0.503486        13.7006 
 111   0.0000       0.511923        13.9301 
 112   0.0000       0.518123        14.0988 
 113   0.0000       0.525641        14.3034 
 114   0.0000       0.535153        14.5623 
 115   0.0000       0.538708        14.6590 
 116   0.0000       0.551374        15.0037 
 117   0.0000       0.558119        15.1872 
 118   0.0000       0.563328        15.3289 
 119   0.0000       0.573852        15.6153 
 120   0.0000       0.580105        15.7855 
 121   0.0000       0.590566        16.0701 
 122   0.0000       0.604125        16.4391 
 123   0.0000       0.607354        16.5269 
 124   0.0000       0.613898        16.7050 
 125   0.0000       0.624989        17.0068 
 126   0.0000       0.626808        17.0563 
 127   0.0000       0.637666        17.3518 
 128   0.0000       0.647827        17.6283 
 129   0.0000       0.651201        17.7201 
 130   0.0000       0.658227        17.9113 
 131   0.0000       0.664857        18.0917 
 132   0.0000       0.674024        18.3411 
 133   0.0000       0.693477        18.8705 
 134   0.0000       0.700841        19.0709 
 135   0.0000       0.713232        19.4080 
 136   0.0000       0.716154        19.4875 
 137   0.0000       0.717508        19.5244 
 138   0.0000       0.727255        19.7896 
 139   0.0000       0.733365        19.9559 
 140   0.0000       0.743888        20.2422 
 141   0.0000       0.747096        20.3295 
 142   0.0000       0.750990        20.4355 
 143   0.0000       0.755688        20.5633 
 144   0.0000       0.757918        20.6240 
 145   0.0000       0.761149        20.7119 
 146   0.0000       0.765197        20.8221 
 147   0.0000       0.771891        21.0042 
 148   0.0000       0.775152        21.0930 
 149   0.0000       0.777504        21.1569 
 150   0.0000       0.780046        21.2261 
 151   0.0000       0.783606        21.3230 
 152   0.0000       0.786123        21.3915 
 153   0.0000       0.793046        21.5799 
 154   0.0000       0.795915        21.6579 
 155   0.0000       0.802687        21.8422 
 156   0.0000       0.804492        21.8913 
 157   0.0000       0.809825        22.0365 
 158   0.0000       0.814893        22.1744 
 159   0.0000       0.817989        22.2586 
 160   0.0000       0.826520        22.4908 
 161   0.0000       0.827822        22.5262 
 162   0.0000       0.831552        22.6277 
 163   0.0000       0.842072        22.9139 
 164   0.0000       0.853055        23.2128 
 165   0.0000       0.860521        23.4160 
 166   0.0000       0.863568        23.4989 
 167   0.0000       0.870827        23.6964 
 168   0.0000       0.887682        24.1550 
 169   0.0000       0.893564        24.3151 
 170   0.0000       0.905669        24.6445 
 171   0.0000       0.911368        24.7996 
 172   0.0000       0.924383        25.1537 
 173   0.0000       0.939966        25.5778 
 174   0.0000       0.949327        25.8325 
 175   0.0000       0.961264        26.1573 
 176   0.0000       0.976955        26.5843 
 177   0.0000       0.992113        26.9968 
 178   0.0000       1.014360        27.6021 
 179   0.0000       1.042653        28.3720 
 180   0.0000       1.045783        28.4572 
 181   0.0000       1.058612        28.8063 
 182   0.0000       1.069875        29.1128 
 183   0.0000       1.093670        29.7603 
 184   0.0000       1.103950        30.0400 
 185   0.0000       1.113247        30.2930 
 186   0.0000       1.144098        31.1325 
 187   0.0000       1.148972        31.2651 
 188   0.0000       1.167067        31.7575 
 189   0.0000       1.184240        32.2248 
 190   0.0000       1.197279        32.5796 
 191   0.0000       1.215425        33.0734 
 192   0.0000       1.234726        33.5986 
 193   0.0000       1.247412        33.9438 
 194   0.0000       1.276752        34.7422 
 195   0.0000       1.292167        35.1617 
 196   0.0000       1.327322        36.1183 
 197   0.0000       1.334050        36.3014 
 198   0.0000       1.365699        37.1626 
 199   0.0000       1.375675        37.4340 
 200   0.0000       1.380936        37.5772 
 201   0.0000       1.427766        38.8515 
 202   0.0000       1.435727        39.0681 
 203   0.0000       1.444500        39.3069 
 204   0.0000       1.466160        39.8962 
 205   0.0000       1.469743        39.9937 
 206   0.0000       1.488135        40.4942 
 207   0.0000       1.513212        41.1766 
 208   0.0000       1.538575        41.8668 
 209   0.0000       1.552787        42.2535 
 210   0.0000       1.575279        42.8655 
 211   0.0000       1.595784        43.4235 
 212   0.0000       1.610441        43.8223 
 213   0.0000       1.618402        44.0389 
 214   0.0000       1.649765        44.8924 
 215   0.0000       1.661349        45.2076 
 216   0.0000       1.666917        45.3591 
 217   0.0000       1.674332        45.5609 
 218   0.0000       1.726553        46.9819 
 219   0.0000       1.751251        47.6539 
 220   0.0000       1.780657        48.4541 
 221   0.0000       1.785708        48.5916 
 222   0.0000       1.810313        49.2611 
 223   0.0000       1.822044        49.5803 
 224   0.0000       1.825219        49.6667 
 225   0.0000       1.828984        49.7692 
 226   0.0000       1.831057        49.8256 
 227   0.0000       1.836964        49.9863 
 228   0.0000       1.849174        50.3186 
 229   0.0000       1.852693        50.4143 
 230   0.0000       1.858508        50.5726 
 231   0.0000       1.865737        50.7693 
 232   0.0000       1.869301        50.8663 
 233   0.0000       1.871130        50.9160 
 234   0.0000       1.891463        51.4693 
 235   0.0000       1.891932        51.4821 
 236   0.0000       1.905272        51.8451 
 237   0.0000       1.909000        51.9465 
 238   0.0000       1.913266        52.0626 
 239   0.0000       1.924628        52.3718 
 240   0.0000       1.932668        52.5906 
 241   0.0000       1.943589        52.8878 
 242   0.0000       1.956126        53.2289 
 243   0.0000       1.972669        53.6790 
 244   0.0000       1.983235        53.9666 
 245   0.0000       1.984770        54.0083 
 246   0.0000       1.998550        54.3833 
 247   0.0000       2.010897        54.7193 
 248   0.0000       2.026178        55.1351 
 249   0.0000       2.033271        55.3281 
 250   0.0000       2.041551        55.5534 
 251   0.0000       2.044538        55.6347 
 252   0.0000       2.067113        56.2490 
 253   0.0000       2.078159        56.5496 
 254   0.0000       2.081667        56.6450 
 255   0.0000       2.088841        56.8402 
 256   0.0000       2.102460        57.2108 
 257   0.0000       2.126127        57.8548 
 258   0.0000       2.137686        58.1694 
 259   0.0000       2.143740        58.3341 
 260   0.0000       2.165268        58.9199 
 261   0.0000       2.178141        59.2702 
 262   0.0000       2.192701        59.6664 
 263   0.0000       2.198660        59.8286 
 264   0.0000       2.213220        60.2248 
 265   0.0000       2.239149        60.9304 
 266   0.0000       2.250934        61.2510 
 267   0.0000       2.273888        61.8756 
 268   0.0000       2.293555        62.4108 
 269   0.0000       2.310982        62.8850 
 270   0.0000       2.319778        63.1244 
 271   0.0000       2.357190        64.1424 
 272   0.0000       2.363199        64.3059 
 273   0.0000       2.397375        65.2359 
 274   0.0000       2.407880        65.5217 
 275   0.0000       2.418606        65.8136 
 276   0.0000       2.429855        66.1197 
 277   0.0000       2.441823        66.4454 
 278   0.0000       2.450020        66.6684 
 279   0.0000       2.464138        67.0526 
 280   0.0000       2.472891        67.2908 
 281   0.0000       2.476207        67.3810 
 282   0.0000       2.476985        67.4022 
 283   0.0000       2.513718        68.4017 
 284   0.0000       2.521855        68.6232 
 285   0.0000       2.552577        69.4592 
 286   0.0000       2.559233        69.6403 
 287   0.0000       2.582881        70.2838 
 288   0.0000       2.602349        70.8135 
 289   0.0000       2.612448        71.0883 
 290   0.0000       2.625784        71.4512 
 291   0.0000       2.667558        72.5879 
 292   0.0000       2.685804        73.0844 
 293   0.0000       2.697293        73.3971 
 294   0.0000       2.705824        73.6292 
 295   0.0000       2.713278        73.8320 
 296   0.0000       2.721876        74.0660 
 297   0.0000       2.745539        74.7099 
 298   0.0000       2.757425        75.0334 
 299   0.0000       2.824400        76.8558 
 300   0.0000       2.839955        77.2791 
 301   0.0000       2.850981        77.5791 
 302   0.0000       2.854507        77.6751 
 303   0.0000       2.908978        79.1573 
 304   0.0000       2.927000        79.6477 
 305   0.0000       2.943857        80.1064 
 306   0.0000       2.954350        80.3920 
 307   0.0000       2.989225        81.3410 
 308   0.0000       3.018122        82.1273 
 309   0.0000       3.025188        82.3195 
 310   0.0000       3.032463        82.5175 
 311   0.0000       3.060225        83.2730 
 312   0.0000       3.078193        83.7619 
 313   0.0000       3.093243        84.1714 
 314   0.0000       3.110730        84.6473 
 315   0.0000       3.124653        85.0261 
 316   0.0000       3.157716        85.9258 
 317   0.0000       3.206099        87.2424 
 318   0.0000       3.213315        87.4387 
 319   0.0000       3.221621        87.6648 
 320   0.0000       3.356376        91.3316 
 321   0.0000       3.417571        92.9968 

                    ********************************
                    * MULLIKEN POPULATION ANALYSIS *
                    ********************************

-----------------------
MULLIKEN ATOMIC CHARGES
-----------------------
   0 S :    0.128517
   1 C :   -0.129347
   2 C :   -0.068492
   3 C :    0.024872
   4 C :   -0.143870
   5 H :   -0.001999
   6 C :    0.009769
   7 H :    0.036645
   8 H :    0.045900
   9 C :   -0.081065
  10 H :    0.048624
  11 H :    0.016720
  12 C :   -0.064621
  13 H :    0.038371
  14 H :    0.051001
  15 H :    0.032913
  16 S :    0.096444
  17 C :   -0.097560
  18 C :   -0.074727
  19 C :   -0.039235
  20 C :   -0.183454
  21 H :    0.051633
  22 C :    0.094956
  23 H :    0.011077
  24 H :    0.030271
  25 C :   -0.102558
  26 H :    0.039691
  27 H :    0.052438
  28 C :   -0.032060
  29 H :    0.028216
  30 H :    0.036640
  31 H :    0.026078
  32 H :    0.047696
  33 H :    0.070515
Sum of atomic charges:   -0.0000000

--------------------------------
MULLIKEN REDUCED ORBITAL CHARGES
--------------------------------
  0 S s       :     5.845487  s :     5.845487
      pz      :     3.197529  p :     9.918424
      px      :     3.243262
      py      :     3.477633
      dz2     :     0.032043  d :     0.107572
      dxz     :     0.017474
      dyz     :     0.018771
      dx2y2   :     0.022268
      dxy     :     0.017015
  1 C s       :     3.173804  s :     3.173804
      pz      :     1.007301  p :     2.920718
      px      :     0.833581
      py      :     1.079836
      dz2     :     0.008273  d :     0.034825
      dxz     :     0.008817
      dyz     :     0.004607
      dx2y2   :     0.005694
      dxy     :     0.007435
  2 C s       :     3.060056  s :     3.060056
      pz      :     0.994642  p :     2.965917
      px      :     0.980231
      py      :     0.991045
      dz2     :     0.009637  d :     0.042519
      dxz     :     0.012608
      dyz     :     0.006061
      dx2y2   :     0.006490
      dxy     :     0.007723
  3 C s       :     3.196409  s :     3.196409
      pz      :     0.887542  p :     2.744466
      px      :     0.866958
      py      :     0.989966
      dz2     :     0.006713  d :     0.034254
      dxz     :     0.009862
      dyz     :     0.004880
      dx2y2   :     0.005927
      dxy     :     0.006870
  4 C s       :     3.059160  s :     3.059160
      pz      :     0.971012  p :     3.039176
      px      :     1.003938
      py      :     1.064225
      dz2     :     0.011464  d :     0.045534
      dxz     :     0.010793
      dyz     :     0.007758
      dx2y2   :     0.007635
      dxy     :     0.007883
  5 H s       :     0.977058  s :     0.977058
      pz      :     0.011896  p :     0.024941
      px      :     0.005609
      py      :     0.007436
  6 C s       :     3.045434  s :     3.045434
      pz      :     1.003332  p :     2.912505
      px      :     0.907930
      py      :     1.001243
      dz2     :     0.008635  d :     0.032292
      dxz     :     0.005412
      dyz     :     0.004007
      dx2y2   :     0.009372
      dxy     :     0.004865
  7 H s       :     0.942717  s :     0.942717
      pz      :     0.012101  p :     0.020637
      px      :     0.003885
      py      :     0.004652
  8 H s       :     0.932963  s :     0.932963
      pz      :     0.004378  p :     0.021137
      px      :     0.003642
      py      :     0.013117
  9 C s       :     3.067249  s :     3.067249
      pz      :     0.999261  p :     2.977294
      px      :     0.964687
      py      :     1.013346
      dz2     :     0.009375  d :     0.036522
      dxz     :     0.007511
      dyz     :     0.004227
      dx2y2   :     0.009035
      dxy     :     0.006374
 10 H s       :     0.931741  s :     0.931741
      pz      :     0.004240  p :     0.019636
      px      :     0.003010
      py      :     0.012386
 11 H s       :     0.958598  s :     0.958598
      pz      :     0.013376  p :     0.024681
      px      :     0.006050
      py      :     0.005256
 12 C s       :     3.045590  s :     3.045590
      pz      :     1.010878  p :     2.992205
      px      :     0.968376
      py      :     1.012951
      dz2     :     0.005275  d :     0.026827
      dxz     :     0.004646
      dyz     :     0.005101
      dx2y2   :     0.005281
      dxy     :     0.006524
 13 H s       :     0.937766  s :     0.937766
      pz      :     0.005742  p :     0.023863
      px      :     0.007314
      py      :     0.010807
 14 H s       :     0.928307  s :     0.928307
      pz      :     0.008187  p :     0.020692
      px      :     0.003563
      py      :     0.008942
 15 H s       :     0.944074  s :     0.944074
      pz      :     0.012499  p :     0.023013
      px      :     0.004938
      py      :     0.005576
 16 S s       :     5.844913  s :     5.844913
      pz      :     3.301168  p :     9.950013
      px      :     3.334790
      py      :     3.314055
      dz2     :     0.028215  d :     0.108629
      dxz     :     0.023788
      dyz     :     0.016939
      dx2y2   :     0.021785
      dxy     :     0.017903
 17 C s       :     3.141156  s :     3.141156
      pz      :     0.917173  p :     2.919314
      px      :     0.987412
      py      :     1.014729
      dz2     :     0.010890  d :     0.037090
      dxz     :     0.007711
      dyz     :     0.006184
      dx2y2   :     0.004896
      dxy     :     0.007409
 18 C s       :     3.192324  s :     3.192324
      pz      :     0.912262  p :     2.847189
      px      :     0.994264
      py      :     0.940663
      dz2     :     0.007063  d :     0.035214
      dxz     :     0.006203
      dyz     :     0.007560
      dx2y2   :     0.008169
      dxy     :     0.006218
 19 C s       :     3.043279  s :     3.043279
      pz      :     0.966897  p :     2.950983
      px      :     0.969011
      py      :     1.015075
      dz2     :     0.011080  d :     0.044972
      dxz     :     0.008006
      dyz     :     0.010199
      dx2y2   :     0.007769
      dxy     :     0.007917
 20 C s       :     3.084671  s :     3.084671
      pz      :     1.048373  p :     3.054582
      px      :     1.040666
      py      :     0.965542
      dz2     :     0.010614  d :     0.044201
      dxz     :     0.010312
      dyz     :     0.007819
      dx2y2   :     0.006720
      dxy     :     0.008737
 21 H s       :     0.927027  s :     0.927027
      pz      :     0.012590  p :     0.021340
      px      :     0.005332
      py      :     0.003419
 22 C s       :     2.937740  s :     2.937740
      pz      :     0.994514  p :     2.933081
      px      :     0.972320
      py      :     0.966247
      dz2     :     0.003584  d :     0.034223
      dxz     :     0.010649
      dyz     :     0.007309
      dx2y2   :     0.006376
      dxy     :     0.006305
 23 H s       :     0.963984  s :     0.963984
      pz      :     0.010379  p :     0.024940
      px      :     0.007406
      py      :     0.007155
 24 H s       :     0.946757  s :     0.946757
      pz      :     0.008554  p :     0.022971
      px      :     0.009611
      py      :     0.004806
 25 C s       :     3.081205  s :     3.081205
      pz      :     1.005564  p :     2.987003
      px      :     0.991409
      py      :     0.990030
      dz2     :     0.005694  d :     0.034350
      dxz     :     0.006395
      dyz     :     0.007849
      dx2y2   :     0.008232
      dxy     :     0.006180
 26 H s       :     0.937005  s :     0.937005
      pz      :     0.012390  p :     0.023304
      px      :     0.005075
      py      :     0.005839
 27 H s       :     0.924528  s :     0.924528
      pz      :     0.006883  p :     0.023034
      px      :     0.011576
      py      :     0.004575
 28 C s       :     2.996987  s :     2.996987
      pz      :     1.024120  p :     3.007022
      px      :     1.026626
      py      :     0.956276
      dz2     :     0.003354  d :     0.028052
      dxz     :     0.005962
      dyz     :     0.007389
      dx2y2   :     0.006175
      dxy     :     0.005172
 29 H s       :     0.947004  s :     0.947004
      pz      :     0.007861  p :     0.024780
      px      :     0.011543
      py      :     0.005377
 30 H s       :     0.939914  s :     0.939914
      pz      :     0.011965  p :     0.023445
      px      :     0.005362
      py      :     0.006118
 31 H s       :     0.951153  s :     0.951153
      pz      :     0.007710  p :     0.022770
      px      :     0.010477
      py      :     0.004583
 32 H s       :     0.928553  s :     0.928553
      pz      :     0.011417  p :     0.023751
      px      :     0.005893
      py      :     0.006441
 33 H s       :     0.907018  s :     0.907018
      pz      :     0.003445  p :     0.022467
      px      :     0.010064
      py      :     0.008958


                     *******************************
                     * LOEWDIN POPULATION ANALYSIS *
                     *******************************

----------------------
LOEWDIN ATOMIC CHARGES
----------------------
   0 S :    0.416949
   1 C :   -0.198331
   2 C :   -0.063280
   3 C :   -0.060770
   4 C :   -0.208537
   5 H :    0.022592
   6 C :   -0.028249
   7 H :    0.032632
   8 H :    0.033368
   9 C :   -0.050728
  10 H :    0.034777
  11 H :    0.013221
  12 C :   -0.068611
  13 H :    0.025281
  14 H :    0.037903
  15 H :    0.024121
  16 S :    0.402471
  17 C :   -0.195820
  18 C :   -0.094265
  19 C :   -0.051378
  20 C :   -0.195399
  21 H :    0.047486
  22 C :   -0.031492
  23 H :    0.023743
  24 H :    0.034160
  25 C :   -0.038880
  26 H :    0.027947
  27 H :    0.028805
  28 C :   -0.067015
  29 H :    0.023359
  30 H :    0.026905
  31 H :    0.026673
  32 H :    0.034605
  33 H :    0.035758

-------------------------------
LOEWDIN REDUCED ORBITAL CHARGES
-------------------------------
  0 S s       :     5.507274  s :     5.507274
      pz      :     3.219264  p :     9.942345
      px      :     3.265918
      py      :     3.457162
      dz2     :     0.041227  d :     0.133432
      dxz     :     0.020729
      dyz     :     0.024474
      dx2y2   :     0.026618
      dxy     :     0.020385
  1 C s       :     2.929229  s :     2.929229
      pz      :     1.089415  p :     3.186843
      px      :     0.997938
      py      :     1.099489
      dz2     :     0.019503  d :     0.082259
      dxz     :     0.023981
      dyz     :     0.010203
      dx2y2   :     0.012809
      dxy     :     0.015764
  2 C s       :     2.876480  s :     2.876480
      pz      :     1.064430  p :     3.083451
      px      :     1.031856
      py      :     0.987165
      dz2     :     0.023885  d :     0.103349
      dxz     :     0.034139
      dyz     :     0.014715
      dx2y2   :     0.015359
      dxy     :     0.015252
  3 C s       :     2.866435  s :     2.866435
      pz      :     1.048540  p :     3.103558
      px      :     1.032502
      py      :     1.022517
      dz2     :     0.017661  d :     0.090777
      dxz     :     0.029097
      dyz     :     0.010918
      dx2y2   :     0.016398
      dxy     :     0.016703
  4 C s       :     2.905716  s :     2.905716
      pz      :     1.036425  p :     3.194276
      px      :     1.090244
      py      :     1.067608
      dz2     :     0.027400  d :     0.108545
      dxz     :     0.028109
      dyz     :     0.016811
      dx2y2   :     0.018727
      dxy     :     0.017499
  5 H s       :     0.902109  s :     0.902109
      pz      :     0.034688  p :     0.075299
      px      :     0.018205
      py      :     0.022406
  6 C s       :     2.867473  s :     2.867473
      pz      :     1.050922  p :     3.082650
      px      :     0.973298
      py      :     1.058430
      dz2     :     0.020822  d :     0.078126
      dxz     :     0.012679
      dyz     :     0.010246
      dx2y2   :     0.023405
      dxy     :     0.010974
  7 H s       :     0.907772  s :     0.907772
      pz      :     0.034383  p :     0.059596
      px      :     0.012731
      py      :     0.012482
  8 H s       :     0.904090  s :     0.904090
      pz      :     0.012285  p :     0.062543
      px      :     0.012332
      py      :     0.037926
  9 C s       :     2.838858  s :     2.838858
      pz      :     1.059630  p :     3.123240
      px      :     1.020757
      py      :     1.042852
      dz2     :     0.022764  d :     0.088630
      dxz     :     0.017689
      dyz     :     0.011027
      dx2y2   :     0.023046
      dxy     :     0.014104
 10 H s       :     0.909259  s :     0.909259
      pz      :     0.011045  p :     0.055963
      px      :     0.010314
      py      :     0.034604
 11 H s       :     0.911462  s :     0.911462
      pz      :     0.039087  p :     0.075316
      px      :     0.019805
      py      :     0.016425
 12 C s       :     2.853249  s :     2.853249
      pz      :     1.056183  p :     3.147410
      px      :     1.026694
      py      :     1.064533
      dz2     :     0.014093  d :     0.067952
      dxz     :     0.010028
      dyz     :     0.013966
      dx2y2   :     0.014020
      dxy     :     0.015845
 13 H s       :     0.905589  s :     0.905589
      pz      :     0.015191  p :     0.069130
      px      :     0.022671
      py      :     0.031269
 14 H s       :     0.906675  s :     0.906675
      pz      :     0.021665  p :     0.055423
      px      :     0.010110
      py      :     0.023648
 15 H s       :     0.911901  s :     0.911901
      pz      :     0.034846  p :     0.063978
      px      :     0.014885
      py      :     0.014247
 16 S s       :     5.502520  s :     5.502520
      pz      :     3.330668  p :     9.961005
      px      :     3.314596
      py      :     3.315741
      dz2     :     0.035308  d :     0.134004
      dxz     :     0.030137
      dyz     :     0.018531
      dx2y2   :     0.026690
      dxy     :     0.023338
 17 C s       :     2.930757  s :     2.930757
      pz      :     1.037062  p :     3.177436
      px      :     1.051320
      py      :     1.089054
      dz2     :     0.025729  d :     0.087627
      dxz     :     0.017441
      dyz     :     0.016619
      dx2y2   :     0.011175
      dxy     :     0.016662
 18 C s       :     2.876596  s :     2.876596
      pz      :     1.038460  p :     3.126274
      px      :     1.039747
      py      :     1.048066
      dz2     :     0.017977  d :     0.091395
      dxz     :     0.015315
      dyz     :     0.022140
      dx2y2   :     0.020082
      dxy     :     0.015881
 19 C s       :     2.853455  s :     2.853455
      pz      :     1.049617  p :     3.085215
      px      :     1.012968
      py      :     1.022630
      dz2     :     0.028014  d :     0.112708
      dxz     :     0.020587
      dyz     :     0.027471
      dx2y2   :     0.017535
      dxy     :     0.019101
 20 C s       :     2.898882  s :     2.898882
      pz      :     1.092091  p :     3.189139
      px      :     1.061592
      py      :     1.035456
      dz2     :     0.026637  d :     0.107378
      dxz     :     0.026015
      dyz     :     0.020681
      dx2y2   :     0.015118
      dxy     :     0.018928
 21 H s       :     0.891226  s :     0.891226
      pz      :     0.035307  p :     0.061288
      px      :     0.015918
      py      :     0.010063
 22 C s       :     2.831139  s :     2.831139
      pz      :     1.055100  p :     3.116260
      px      :     1.029866
      py      :     1.031293
      dz2     :     0.006577  d :     0.084094
      dxz     :     0.027513
      dyz     :     0.019143
      dx2y2   :     0.014506
      dxy     :     0.016354
 23 H s       :     0.902284  s :     0.902284
      pz      :     0.028746  p :     0.073972
      px      :     0.023292
      py      :     0.021934
 24 H s       :     0.899125  s :     0.899125
      pz      :     0.022622  p :     0.066715
      px      :     0.029058
      py      :     0.015035
 25 C s       :     2.838056  s :     2.838056
      pz      :     1.050739  p :     3.116835
      px      :     1.040817
      py      :     1.025279
      dz2     :     0.014291  d :     0.083989
      dxz     :     0.017279
      dyz     :     0.017553
      dx2y2   :     0.021341
      dxy     :     0.013524
 26 H s       :     0.902133  s :     0.902133
      pz      :     0.035740  p :     0.069920
      px      :     0.014926
      py      :     0.019254
 27 H s       :     0.901934  s :     0.901934
      pz      :     0.020185  p :     0.069261
      px      :     0.034178
      py      :     0.014899
 28 C s       :     2.833863  s :     2.833863
      pz      :     1.069999  p :     3.162593
      px      :     1.078492
      py      :     1.014103
      dz2     :     0.009378  d :     0.070560
      dxz     :     0.015491
      dyz     :     0.016984
      dx2y2   :     0.017242
      dxy     :     0.011465
 29 H s       :     0.906014  s :     0.906014
      pz      :     0.021202  p :     0.070627
      px      :     0.031751
      py      :     0.017674
 30 H s       :     0.906863  s :     0.906863
      pz      :     0.033086  p :     0.066232
      px      :     0.013674
      py      :     0.019472
 31 H s       :     0.910682  s :     0.910682
      pz      :     0.020472  p :     0.062645
      px      :     0.027820
      py      :     0.014353
 32 H s       :     0.892878  s :     0.892878
      pz      :     0.032389  p :     0.072517
      px      :     0.020025
      py      :     0.020103
 33 H s       :     0.894286  s :     0.894286
      pz      :     0.013161  p :     0.069956
      px      :     0.030788
      py      :     0.026007


                      *****************************
                      * MAYER POPULATION ANALYSIS *
                      *****************************

  NA   - Mulliken gross atomic population
  ZA   - Total nuclear charge
  QA   - Mulliken gross atomic charge
  VA   - Mayer's total valence
  BVA  - Mayer's bonded valence
  FA   - Mayer's free valence

  ATOM       NA         ZA         QA         VA         BVA        FA
  0 S     15.8715    16.0000     0.1285     2.4774     2.4774     0.0000
  1 C      6.1293     6.0000    -0.1293     3.8571     3.8571    -0.0000
  2 C      6.0685     6.0000    -0.0685     4.0106     4.0106     0.0000
  3 C      5.9751     6.0000     0.0249     3.9495     3.9495    -0.0000
  4 C      6.1439     6.0000    -0.1439     3.8792     3.8792    -0.0000
  5 H      1.0020     1.0000    -0.0020     1.0046     1.0046    -0.0000
  6 C      5.9902     6.0000     0.0098     3.9520     3.9520    -0.0000
  7 H      0.9634     1.0000     0.0366     0.9852     0.9852    -0.0000
  8 H      0.9541     1.0000     0.0459     0.9825     0.9825    -0.0000
  9 C      6.0811     6.0000    -0.0811     4.0484     4.0484    -0.0000
 10 H      0.9514     1.0000     0.0486     0.9763     0.9763    -0.0000
 11 H      0.9833     1.0000     0.0167     0.9836     0.9836    -0.0000
 12 C      6.0646     6.0000    -0.0646     3.9916     3.9916    -0.0000
 13 H      0.9616     1.0000     0.0384     0.9872     0.9872     0.0000
 14 H      0.9490     1.0000     0.0510     0.9836     0.9836     0.0000
 15 H      0.9671     1.0000     0.0329     0.9923     0.9923    -0.0000
 16 S     15.9036    16.0000     0.0964     2.4916     2.4916     0.0000
 17 C      6.0976     6.0000    -0.0976     3.8481     3.8481     0.0000
 18 C      6.0747     6.0000    -0.0747     3.9528     3.9528     0.0000
 19 C      6.0392     6.0000    -0.0392     4.0452     4.0452     0.0000
 20 C      6.1835     6.0000    -0.1835     3.9353     3.9353     0.0000
 21 H      0.9484     1.0000     0.0516     0.9933     0.9933     0.0000
 22 C      5.9050     6.0000     0.0950     3.9142     3.9142     0.0000
 23 H      0.9889     1.0000     0.0111     1.0018     1.0018    -0.0000
 24 H      0.9697     1.0000     0.0303     0.9814     0.9814    -0.0000
 25 C      6.1026     6.0000    -0.1026     4.1009     4.1009    -0.0000
 26 H      0.9603     1.0000     0.0397     0.9702     0.9702     0.0000
 27 H      0.9476     1.0000     0.0524     0.9775     0.9775    -0.0000
 28 C      6.0321     6.0000    -0.0321     4.0005     4.0005    -0.0000
 29 H      0.9718     1.0000     0.0282     0.9891     0.9891    -0.0000
 30 H      0.9634     1.0000     0.0366     0.9895     0.9895     0.0000
 31 H      0.9739     1.0000     0.0261     0.9857     0.9857    -0.0000
 32 H      0.9523     1.0000     0.0477     1.0066     1.0066    -0.0000
 33 H      0.9295     1.0000     0.0705     0.9905     0.9905    -0.0000

  Mayer bond orders larger than 0.100000
B(  0-S ,  1-C ) :   1.1262 B(  0-S ,  4-C ) :   1.1622 B(  1-C ,  2-C ) :   1.6524 
B(  1-C , 32-H ) :   0.9553 B(  2-C ,  3-C ) :   1.2618 B(  2-C ,  6-C ) :   0.9816 
B(  3-C ,  4-C ) :   1.5509 B(  3-C ,  5-H ) :   1.0004 B(  4-C , 20-C ) :   1.0326 
B(  6-C ,  7-H ) :   0.9496 B(  6-C ,  8-H ) :   0.9532 B(  6-C ,  9-C ) :   1.0598 
B(  9-C , 10-H ) :   0.9559 B(  9-C , 11-H ) :   0.9617 B(  9-C , 12-C ) :   1.0650 
B( 12-C , 13-H ) :   0.9750 B( 12-C , 14-H ) :   0.9761 B( 12-C , 15-H ) :   0.9759 
B( 16-S , 17-C ) :   1.1813 B( 16-S , 20-C ) :   1.1235 B( 17-C , 18-C ) :   1.6007 
B( 17-C , 33-H ) :   0.9584 B( 18-C , 19-C ) :   1.2392 B( 18-C , 21-H ) :   0.9766 
B( 19-C , 20-C ) :   1.6307 B( 19-C , 22-C ) :   1.0323 B( 22-C , 23-H ) :   0.9327 
B( 22-C , 24-H ) :   0.9332 B( 22-C , 25-C ) :   1.0384 B( 25-C , 26-H ) :   0.9495 
B( 25-C , 27-H ) :   0.9653 B( 25-C , 28-C ) :   1.0879 B( 28-C , 29-H ) :   0.9741 
B( 28-C , 30-H ) :   0.9753 B( 28-C , 31-H ) :   0.9735 

-------
TIMINGS
-------

Total SCF time: 0 days 0 hours 0 min 27 sec 

Total time                  ....      27.048 sec
Sum of individual times     ....      26.069 sec  ( 96.4%)

Fock matrix formation       ....      24.243 sec  ( 89.6%)
  XC integration            ....       1.910 sec  (  7.9% of F)
    Basis function eval.    ....       0.211 sec  ( 11.0% of XC)
    Density eval.           ....       0.153 sec  (  8.0% of XC)
    XC-Functional eval.     ....       0.187 sec  (  9.8% of XC)
    XC-Potential eval.      ....       0.185 sec  (  9.7% of XC)
Diagonalization             ....       0.130 sec  (  0.5%)
Density matrix formation    ....       0.016 sec  (  0.1%)
Population analysis         ....       0.052 sec  (  0.2%)
Initial guess               ....       0.192 sec  (  0.7%)
Orbital Transformation      ....       0.000 sec  (  0.0%)
Orbital Orthonormalization  ....       0.000 sec  (  0.0%)
DIIS solution               ....       0.143 sec  (  0.5%)
SOSCF solution              ....       0.130 sec  (  0.5%)
Grid generation             ....       1.162 sec  (  4.3%)


-------------------------------------------------------------------------------
                          DFT DISPERSION CORRECTION                            
                                                                               
                              DFTD3 V3.1  Rev 1                                
                              USING zero damping                               
-------------------------------------------------------------------------------
The omegaB97X-D3 functional is recognized. Fit by Chai et al.
Active option DFTDOPT                   ...         3   

molecular C6(AA) [au] = 14171.247496 


            DFT-D V3
 parameters
 s6 scaling factor         :     1.0000 
 rs6 scaling factor        :     1.2810 
 s8 scaling factor         :     1.0000 
 rs8 scaling factor        :     1.0940 
 Damping factor alpha6     :    14.0000 
 Damping factor alpha8     :    16.0000 
 ad hoc parameters k1-k3   :    16.0000     1.3333    -4.0000 

 Edisp/kcal,au: -8.423599371577  -0.013423858637 
 E6   /kcal   :  -3.768172050 
 E8   /kcal   :  -4.655427322 
 % E8         :  55.266485459 

-------------------------   ----------------
Dispersion correction           -0.013423859
-------------------------   ----------------


-------------------------   --------------------
FINAL SINGLE POINT ENERGY     -1339.864783565433
-------------------------   --------------------


                            ***************************************
                            *     ORCA property calculations      *
                            ***************************************

                                    ---------------------
                                    Active property flags
                                    ---------------------
   (+) Dipole Moment


------------------------------------------------------------------------------
                       ORCA ELECTRIC PROPERTIES CALCULATION
------------------------------------------------------------------------------

Dipole Moment Calculation                       ... on
Quadrupole Moment Calculation                   ... off
Polarizability Calculation                      ... off
GBWName                                         ... config_7758.gbw
Electron density file                           ... config_7758.scfp
The origin for moment calculation is the CENTER OF MASS  = (-72.834749, 100.810626 203.426107)

-------------
DIPOLE MOMENT
-------------
                                X             Y             Z
Electronic contribution:     17.88658     -13.50314       9.80663
Nuclear contribution   :    -18.31482      13.67826     -10.18664
                        -----------------------------------------
Total Dipole Moment    :     -0.42823       0.17511      -0.38000
                        -----------------------------------------
Magnitude (a.u.)       :      0.59871
Magnitude (Debye)      :      1.52180



--------------------
Rotational spectrum 
--------------------
 
Rotational constants in cm-1:     0.019810     0.007021     0.006029 
Rotational constants in MHz :   593.882778   210.487634   180.733463 

 Dipole components along the rotational axes: 
x,y,z [a.u.] :    -0.153073     0.460465    -0.350705 
x,y,z [Debye]:    -0.389082     1.170408    -0.891422 

 

Timings for individual modules:

Sum of individual times         ...       28.110 sec (=   0.468 min)
GTO integral calculation        ...        0.725 sec (=   0.012 min)   2.6 %
SCF iterations                  ...       27.385 sec (=   0.456 min)  97.4 %
                             ****ORCA TERMINATED NORMALLY****
TOTAL RUN TIME: 0 days 0 hours 0 minutes 28 seconds 745 msec
