
                                 *****************
                                 * O   R   C   A *
                                 *****************

           --- An Ab Initio, DFT and Semiempirical electronic structure package ---

                  #######################################################
                  #                        -***-                        #
                  #          Department of theory and spectroscopy      #
                  #               Directorship: Frank Neese             #
                  #        Max Planck Institute fuer Kohlenforschung    #
                  #                Kaiser Wilhelm Platz 1               #
                  #                 D-45470 Muelheim/Ruhr               #
                  #                      Germany                        #
                  #                                                     #
                  #                  All rights reserved                #
                  #                        -***-                        #
                  #######################################################


                         Program Version 4.2.1 -  RELEASE  -


 With contributions from (in alphabetic order):
   Daniel Aravena         : Magnetic Suceptibility
   Michael Atanasov       : Ab Initio Ligand Field Theory (pilot matlab implementation)
   Alexander A. Auer      : GIAO ZORA, VPT2
   Ute Becker             : Parallelization
   Giovanni Bistoni       : ED, misc. LED, open-shell LED, HFLD
   Martin Brehm           : Molecular dynamics
   Dmytro Bykov           : SCF Hessian
   Vijay G. Chilkuri      : MRCI spin determinant printing, contributions to CSF-ICE
   Dipayan Datta          : RHF DLPNO-CCSD density
   Achintya Kumar Dutta   : EOM-CC, STEOM-CC
   Dmitry Ganyushin       : Spin-Orbit,Spin-Spin,Magnetic field MRCI
   Miquel Garcia          : C-PCM Hessian, Gaussian charge scheme
   Yang Guo               : DLPNO-NEVPT2, CIM, IAO-localization
   Andreas Hansen         : Spin unrestricted coupled pair/coupled cluster methods
   Benjamin Helmich-Paris : CASSCF linear response (MC-RPA)
   Lee Huntington         : MR-EOM, pCC
   Robert Izsak           : Overlap fitted RIJCOSX, COSX-SCS-MP3, EOM
   Christian Kollmar      : KDIIS, OOCD, Brueckner-CCSD(T), CCSD density
   Simone Kossmann        : Meta GGA functionals, TD-DFT gradient, OOMP2, MP2 Hessian
   Martin Krupicka        : AUTO-CI
   Lucas Lang             : DCDCAS
   Dagmar Lenk            : GEPOL surface, SMD
   Dimitrios Liakos       : Extrapolation schemes; Compound Job, initial MDCI parallelization
   Dimitrios Manganas     : Further ROCIS development; embedding schemes
   Dimitrios Pantazis     : SARC Basis sets
   Taras Petrenko         : DFT Hessian,TD-DFT gradient, ASA, ECA, R-Raman, ABS, FL, XAS/XES, NRVS
   Peter Pinski           : DLPNO-MP2, DLPNO-MP2 Gradient
   Christoph Reimann      : Effective Core Potentials
   Marius Retegan         : Local ZFS, SOC
   Christoph Riplinger    : Optimizer, TS searches, QM/MM, DLPNO-CCSD(T), (RO)-DLPNO pert. Triples
   Tobias Risthaus        : Range-separated hybrids, TD-DFT gradient, RPA, STAB
   Michael Roemelt        : Original ROCIS implementation
   Masaaki Saitow         : Open-shell DLPNO-CCSD energy and density
   Barbara Sandhoefer     : DKH picture change effects
   Avijit Sen             : IP-ROCIS
   Kantharuban Sivalingam : CASSCF convergence, NEVPT2, FIC-MRCI
   Bernardo de Souza      : ESD, SOC TD-DFT
   Georgi Stoychev        : AutoAux, RI-MP2 NMR
   Willem Van den Heuvel  : Paramagnetic NMR
   Boris Wezisla          : Elementary symmetry handling
   Frank Wennmohs         : Technical directorship


 We gratefully acknowledge several colleagues who have allowed us to
 interface, adapt or use parts of their codes:
   Stefan Grimme, W. Hujo, H. Kruse,             : VdW corrections, initial TS optimization,
                  C. Bannwarth                     DFT functionals, gCP, sTDA/sTD-DF
   Ed Valeev, F. Pavosevic, A. Kumar             : LibInt (2-el integral package), F12 methods
   Garnet Chan, S. Sharma, J. Yang, R. Olivares  : DMRG
   Ulf Ekstrom                                   : XCFun DFT Library
   Mihaly Kallay                                 : mrcc  (arbitrary order and MRCC methods)
   Andreas Klamt, Michael Diedenhofen            : otool_cosmo (COSMO solvation model)
   Jiri Pittner, Ondrej Demel                    : Mk-CCSD
   Frank Weinhold                                : gennbo (NPA and NBO analysis)
   Christopher J. Cramer and Donald G. Truhlar   : smd solvation model
   Lars Goerigk                                  : TD-DFT with DH, B97 family of functionals
   V. Asgeirsson, H. Jonsson                     : NEB implementation
   FAccTs GmbH                                   : IRC, NEB, NEB-TS, Multilevel, MM, QM/MM, CI optimization
   S Lehtola, MJT Oliveira, MAL Marques          : LibXC Library


 Your calculation uses the libint2 library for the computation of 2-el integrals
 For citations please refer to: http://libint.valeyev.net

 Your ORCA version has been built with support for libXC version: 4.2.3
 For citations please refer to: https://tddft.org/programs/libxc/

 This ORCA versions uses:
   CBLAS   interface :  Fast vector & matrix operations
   LAPACKE interface :  Fast linear algebra routines
   SCALAPACK package :  Parallel linear algebra routines


Your calculation utilizes the atom-pairwise dispersion correction
with the zero-damping scheme (D30)
Cite in your paper:
S.Grimme, J.Antony, S.Ehrlich and H.Krieg, J.Chem.Phys., 132, (2010), 154104 
   

XCFun DFT library Copyright 2009-2010 Ulf Ekstrom and contributors.
See http://admol.org/xcfun for more information. This is free soft-
ware; see the source code for copying conditions. There is ABSOLUTELY
NO WARRANTY; not even for MERCHANTABILITY or FITNESS FOR A PARTICULAR
PURPOSE. For details see the documentation. Scientific users of this 
library should cite U. Ekstrom, L. Visscher, R. Bast, A. J. Thorvald-
sen and K. Ruud; J.Chem.Theor.Comp. 2010, DOI: 10.1021/ct100117s
XCFun Version 0.99 
----- Orbital basis set information -----
Your calculation utilizes the basis: def2-SVP
   F. Weigend and R. Ahlrichs, Phys. Chem. Chem. Phys. 7, 3297 (2005).

================================================================================
                                        WARNINGS
                       Please study these warnings very carefully!
================================================================================


INFO   : the flag for use of LIBINT has been found!

================================================================================
                                       INPUT FILE
================================================================================
NAME = config_6610.inp
|  1> ! wB97X-D3 SP def2-SVP
|  2> %pal
|  3> nprocs 16
|  4> end
|  5> 
|  6> * xyz 0 1
|  7> S 	 -48.7133 	 16.3166 	 78.4344 	 
|  8> C 	 -47.2641 	 16.5679 	 79.3855 	 
|  9> C 	 -46.1302 	 16.3516 	 78.6414 	 
| 10> C 	 -46.3897 	 15.974 	 77.285 	 
| 11> C 	 -47.76 	 15.9314 	 76.989 	 
| 12> H 	 -45.6452 	 15.6967 	 76.5672 	 
| 13> C 	 -44.7217 	 16.2958 	 79.1815 	 
| 14> H 	 -44.1561 	 15.6609 	 78.5328 	 
| 15> H 	 -44.6981 	 15.808 	 80.1393 	 
| 16> C 	 -44.0985 	 17.7005 	 79.2975 	 
| 17> H 	 -44.1183 	 18.1719 	 78.3376 	 
| 18> H 	 -44.6706 	 18.3987 	 80.042 	 
| 19> C 	 -42.6309 	 17.702 	 79.6473 	 
| 20> H 	 -42.3932 	 18.6927 	 80.0856 	 
| 21> H 	 -42.4532 	 16.9191 	 80.3351 	 
| 22> H 	 -41.9507 	 17.4986 	 78.7848 	 
| 23> S 	 -49.688 	 14.3914 	 75.8587 	 
| 24> C 	 -49.8667 	 14.5536 	 74.1211 	 
| 25> C 	 -49.0438 	 15.3978 	 73.5364 	 
| 26> C 	 -48.1256 	 15.9481 	 74.4194 	 
| 27> C 	 -48.3656 	 15.5699 	 75.7107 	 
| 28> H 	 -48.9762 	 15.4169 	 72.4594 	 
| 29> C 	 -47.07 	 16.8354 	 73.7943 	 
| 30> H 	 -47.3497 	 17.0665 	 72.7558 	 
| 31> H 	 -46.1584 	 16.2249 	 73.6778 	 
| 32> C 	 -46.8117 	 18.1619 	 74.5272 	 
| 33> H 	 -46.8492 	 17.7964 	 75.5201 	 
| 34> H 	 -47.6278 	 18.8478 	 74.3436 	 
| 35> C 	 -45.4751 	 18.8666 	 74.1863 	 
| 36> H 	 -45.3067 	 19.5409 	 74.9899 	 
| 37> H 	 -45.5074 	 19.4114 	 73.2195 	 
| 38> H 	 -44.6109 	 18.2226 	 74.2611 	 
| 39> H 	 -47.1502 	 16.6311 	 80.4516 	 
| 40> H 	 -50.5538 	 14.0241 	 73.5917 	 
| 41> *
| 42> 
| 43>                          ****END OF INPUT****
================================================================================

                       ****************************
                       * Single Point Calculation *
                       ****************************

---------------------------------
CARTESIAN COORDINATES (ANGSTROEM)
---------------------------------
  S    -48.713300   16.316600   78.434400
  C    -47.264100   16.567900   79.385500
  C    -46.130200   16.351600   78.641400
  C    -46.389700   15.974000   77.285000
  C    -47.760000   15.931400   76.989000
  H    -45.645200   15.696700   76.567200
  C    -44.721700   16.295800   79.181500
  H    -44.156100   15.660900   78.532800
  H    -44.698100   15.808000   80.139300
  C    -44.098500   17.700500   79.297500
  H    -44.118300   18.171900   78.337600
  H    -44.670600   18.398700   80.042000
  C    -42.630900   17.702000   79.647300
  H    -42.393200   18.692700   80.085600
  H    -42.453200   16.919100   80.335100
  H    -41.950700   17.498600   78.784800
  S    -49.688000   14.391400   75.858700
  C    -49.866700   14.553600   74.121100
  C    -49.043800   15.397800   73.536400
  C    -48.125600   15.948100   74.419400
  C    -48.365600   15.569900   75.710700
  H    -48.976200   15.416900   72.459400
  C    -47.070000   16.835400   73.794300
  H    -47.349700   17.066500   72.755800
  H    -46.158400   16.224900   73.677800
  C    -46.811700   18.161900   74.527200
  H    -46.849200   17.796400   75.520100
  H    -47.627800   18.847800   74.343600
  C    -45.475100   18.866600   74.186300
  H    -45.306700   19.540900   74.989900
  H    -45.507400   19.411400   73.219500
  H    -44.610900   18.222600   74.261100
  H    -47.150200   16.631100   80.451600
  H    -50.553800   14.024100   73.591700

----------------------------
CARTESIAN COORDINATES (A.U.)
----------------------------
  NO LB      ZA    FRAG     MASS         X           Y           Z
   0 S    16.0000    0    32.060  -92.054796   30.833905  148.219535
   1 C     6.0000    0    12.011  -89.316205   31.308794  150.016854
   2 C     6.0000    0    12.011  -87.173445   30.900046  148.610709
   3 C     6.0000    0    12.011  -87.663828   30.186485  146.047484
   4 C     6.0000    0    12.011  -90.253320   30.105983  145.488125
   5 H     1.0000    0     1.008  -86.256927   29.662464  144.691039
   6 C     6.0000    0    12.011  -84.511765   30.794599  149.631350
   7 H     1.0000    0     1.008  -83.442936   29.594812  148.405485
   8 H     1.0000    0     1.008  -84.467168   29.872791  151.441330
   9 C     6.0000    0    12.011  -83.334088   33.449097  149.850558
  10 H     1.0000    0     1.008  -83.371504   34.339914  148.036610
  11 H     1.0000    0     1.008  -84.415200   34.768504  151.257459
  12 C     6.0000    0    12.011  -80.560726   33.451932  150.511584
  13 H     1.0000    0     1.008  -80.111538   35.324084  151.339851
  14 H     1.0000    0     1.008  -80.224922   31.972465  151.811338
  15 H     1.0000    0     1.008  -79.275334   33.067562  148.881696
  16 S    16.0000    0    32.060  -93.896712   27.195805  143.352168
  17 C     6.0000    0    12.011  -94.234406   27.502318  140.068580
  18 C     6.0000    0    12.011  -92.679351   29.097625  138.963657
  19 C     6.0000    0    12.011  -90.944204   30.137541  140.632285
  20 C     6.0000    0    12.011  -91.397738   29.422847  143.072488
  21 H     1.0000    0     1.008  -92.551605   29.133719  136.928422
  22 C     6.0000    0    12.011  -88.949409   31.814295  139.451017
  23 H     1.0000    0     1.008  -89.477966   32.251011  137.488537
  24 H     1.0000    0     1.008  -87.226735   30.660618  139.230864
  25 C     6.0000    0    12.011  -88.461293   34.321017  140.835998
  26 H     1.0000    0     1.008  -88.532158   33.630322  142.712307
  27 H     1.0000    0     1.008  -90.003498   35.617180  140.489044
  28 C     6.0000    0    12.011  -85.935485   35.652707  140.191790
  29 H     1.0000    0     1.008  -85.617255   36.926949  141.710374
  30 H     1.0000    0     1.008  -85.996523   36.682230  138.364803
  31 H     1.0000    0     1.008  -84.302384   34.435723  140.333141
  32 H     1.0000    0     1.008  -89.100965   31.428224  152.031491
  33 H     1.0000    0     1.008  -95.532837   26.501708  139.068159

--------------------------------
INTERNAL COORDINATES (ANGSTROEM)
--------------------------------
 S      0   0   0     0.000000000000     0.00000000     0.00000000
 C      1   0   0     1.751548897405     0.00000000     0.00000000
 C      2   1   0     1.373389860892   111.48816523     0.00000000
 C      3   2   1     1.431692344745   113.90339804   359.85167832
 C      4   3   2     1.402552262841   112.64633805     1.29504252
 H      4   3   2     1.070706486391   125.26903889   184.49546830
 C      3   2   1     1.509534332170   125.61475533   188.73538735
 H      7   3   2     1.069491963504   107.36021967   151.98442971
 H      7   3   2     1.075121686136   110.85487439    37.78367798
 C      7   3   2     1.541108798885   111.74994124   275.03383390
 H     10   7   3     1.069587775734   109.06755286   302.81402713
 H     10   7   3     1.170069185989   113.20806282    62.31274604
 C     10   7   3     1.508712050061   114.31310027   188.09677865
 H     13  10   7     1.109096330352   107.51719073   201.84018677
 H     13  10   7     1.057155873086   108.27768851   322.57483198
 H     13  10   7     1.117116757550   114.40017209    79.73195629
 S      5   4   3     2.714104288711   143.04921971   228.82422266
 C     17   5   4     1.754279421871   115.61956551   274.21053997
 C     18  17   5     1.315945340810   115.83046938     0.43932952
 C     19  18  17     1.387663622785   112.67146714     3.54232888
 C     20  19  18     1.366781229751   112.04025601   354.77337386
 H     19  18  17     1.079288455419   119.59703657   169.07214045
 C     20  19  18     1.514048433836   115.53234343   174.84343468
 H     23  20  19     1.100055248613   109.60960722    12.36195367
 H     23  20  19     1.103311859811   107.17995696   261.14007684
 C     23  20  19     1.537356025779   115.21283735   134.58736826
 H     26  23  20     1.058700576178    98.23669179    41.05015883
 H     26  23  20     1.081751810722   109.84223851   285.60418338
 C     26  23  20     1.548972065597   115.63329058   161.78449182
 H     29  26  23     1.062455650839   105.01345365   199.12196142
 H     29  26  23     1.110203841644   112.94210196    78.51938496
 H     29  26  23     1.080357662999   113.81696042   309.22959762
 H      2   1   3     1.074028239852   129.43352883   195.60613362
 H     18  17   5     1.016238662913   122.45830317   179.78856430

---------------------------
INTERNAL COORDINATES (A.U.)
---------------------------
 S      0   0   0     0.000000000000     0.00000000     0.00000000
 C      1   0   0     3.309947726267     0.00000000     0.00000000
 C      2   1   0     2.595330712189   111.48816523     0.00000000
 C      3   2   1     2.705506439599   113.90339804   359.85167832
 C      4   3   2     2.650439665281   112.64633805     1.29504252
 H      4   3   2     2.023342029092   125.26903889   184.49546830
 C      3   2   1     2.852606477553   125.61475533   188.73538735
 H      7   3   2     2.021046913453   107.36021967   151.98442971
 H      7   3   2     2.031685547437   110.85487439    37.78367798
 C      7   3   2     2.912273572469   111.74994124   275.03383390
 H     10   7   3     2.021227972328   109.06755286   302.81402713
 H     10   7   3     2.211110319259   113.20806282    62.31274604
 C     10   7   3     2.851052589563   114.31310027   188.09677865
 H     13  10   7     2.095888320502   107.51719073   201.84018677
 H     13  10   7     1.997735080999   108.27768851   322.57483198
 H     13  10   7     2.111044731384   114.40017209    79.73195629
 S      5   4   3     5.128913804565   143.04921971   228.82422266
 C     17   5   4     3.315107669710   115.61956551   274.21053997
 C     18  17   5     2.486776301341   115.83046938     0.43932952
 C     19  18  17     2.622304213068   112.67146714     3.54232888
 C     20  19  18     2.582842209214   112.04025601   354.77337386
 H     19  18  17     2.039559600244   119.59703657   169.07214045
 C     20  19  18     2.861136893442   115.53234343   174.84343468
 H     23  20  19     2.078803152060   109.60960722    12.36195367
 H     23  20  19     2.084957255350   107.17995696   261.14007684
 C     23  20  19     2.905181859056   115.21283735   134.58736826
 H     26  23  20     2.000654146801    98.23669179    41.05015883
 H     26  23  20     2.044214667138   109.84223851   285.60418338
 C     26  23  20     2.927132993073   115.63329058   161.78449182
 H     29  26  23     2.007750209523   105.01345365   199.12196142
 H     29  26  23     2.097981213534   112.94210196    78.51938496
 H     29  26  23     2.041580109751   113.81696042   309.22959762
 H      2   1   3     2.029619233418   129.43352883   195.60613362
 H     18  17   5     1.920412759609   122.45830317   179.78856430

---------------------
BASIS SET INFORMATION
---------------------
There are 3 groups of distinct atoms

 Group   1 Type S   : 10s7p1d contracted to 4s3p1d pattern {5311/511/1}
 Group   2 Type C   : 7s4p1d contracted to 3s2p1d pattern {511/31/1}
 Group   3 Type H   : 4s1p contracted to 2s1p pattern {31/1}

Atom   0S    basis set group =>   1
Atom   1C    basis set group =>   2
Atom   2C    basis set group =>   2
Atom   3C    basis set group =>   2
Atom   4C    basis set group =>   2
Atom   5H    basis set group =>   3
Atom   6C    basis set group =>   2
Atom   7H    basis set group =>   3
Atom   8H    basis set group =>   3
Atom   9C    basis set group =>   2
Atom  10H    basis set group =>   3
Atom  11H    basis set group =>   3
Atom  12C    basis set group =>   2
Atom  13H    basis set group =>   3
Atom  14H    basis set group =>   3
Atom  15H    basis set group =>   3
Atom  16S    basis set group =>   1
Atom  17C    basis set group =>   2
Atom  18C    basis set group =>   2
Atom  19C    basis set group =>   2
Atom  20C    basis set group =>   2
Atom  21H    basis set group =>   3
Atom  22C    basis set group =>   2
Atom  23H    basis set group =>   3
Atom  24H    basis set group =>   3
Atom  25C    basis set group =>   2
Atom  26H    basis set group =>   3
Atom  27H    basis set group =>   3
Atom  28C    basis set group =>   2
Atom  29H    basis set group =>   3
Atom  30H    basis set group =>   3
Atom  31H    basis set group =>   3
Atom  32H    basis set group =>   3
Atom  33H    basis set group =>   3


           ************************************************************
           *        Program running with 16 parallel MPI-processes    *
           *              working on a common directory               *
           ************************************************************
------------------------------------------------------------------------------
                           ORCA GTO INTEGRAL CALCULATION
------------------------------------------------------------------------------

                         BASIS SET STATISTICS AND STARTUP INFO

 # of primitive gaussian shells          ...  294
 # of primitive gaussian functions       ...  534
 # of contracted shells                  ...  154
 # of contracted basis functions         ...  322
 Highest angular momentum                ...    2
 Maximum contraction depth               ...    5
 Integral package used                   ... LIBINT
 Integral threshhold            Thresh   ...  1.000e-10
 Primitive cut-off              TCut     ...  1.000e-11


------------------------------ INTEGRAL EVALUATION ----------------------------


 * One electron integrals 
 Pre-screening matrix                    ... done
 Shell pair data                         ... done (   0.003 sec)



           ************************************************************
           *        Program running with 16 parallel MPI-processes    *
           *              working on a common directory               *
           ************************************************************
-------------------------------------------------------------------------------
                                 ORCA SCF
-------------------------------------------------------------------------------

------------
SCF SETTINGS
------------
Hamiltonian:
 Density Functional     Method          .... DFT(GTOs)
 Exchange Functional    Exchange        .... WB97X-D3
 Correlation Functional Correlation     .... WB97X-D3
 Gradients option       PostSCFGGA      .... off
 Hybrid DFT is turned on
   Fraction HF Exchange ScalHFX         ....  0.195728
   Scaling of DF-GGA-X  ScalDFX         ....  0.000000
   Scaling of DF-GGA-C  ScalDFC         ....  1.000000
   Scaling of DF-LDA-C  ScalLDAC        ....  1.000000
   Perturbative correction              ....  0.000000
   Density functional embedding theory  .... OFF
 Long-range corrected/Screened/Range-Separated Hybrid DFT is turned on
   Amount of maximum screened exact exchange              ....  0.804272
   Range separation parameter mu (erf(mu*r12)/r12)        ....  0.250000


General Settings:
 Integral files         IntName         .... config_6610
 Hartree-Fock type      HFTyp           .... RHF
 Total Charge           Charge          ....    0
 Multiplicity           Mult            ....    1
 Number of Electrons    NEL             ....  134
 Basis Dimension        Dim             ....  322
 Nuclear Repulsion      ENuc            ....   1289.8956207400 Eh

Convergence Acceleration:
 DIIS                   CNVDIIS         .... on
   Start iteration      DIISMaxIt       ....    12
   Startup error        DIISStart       ....  0.200000
   # of expansion vecs  DIISMaxEq       ....     5
   Bias factor          DIISBfac        ....   1.050
   Max. coefficient     DIISMaxC        ....  10.000
 Newton-Raphson         CNVNR           .... off
 SOSCF                  CNVSOSCF        .... on
   Start iteration      SOSCFMaxIt      ....   150
   Startup grad/error   SOSCFStart      ....  0.003300
 Level Shifting         CNVShift        .... on
   Level shift para.    LevelShift      ....    0.2500
   Turn off err/grad.   ShiftErr        ....    0.0010
 Zerner damping         CNVZerner       .... off
 Static damping         CNVDamp         .... on
   Fraction old density DampFac         ....    0.7000
   Max. Damping (<1)    DampMax         ....    0.9800
   Min. Damping (>=0)   DampMin         ....    0.0000
   Turn off err/grad.   DampErr         ....    0.1000
 Fernandez-Rico         CNVRico         .... off

SCF Procedure:
 Maximum # iterations   MaxIter         ....   125
 SCF integral mode      SCFMode         .... Direct
   Integral package                     .... LIBINT
 Reset frequency        DirectResetFreq ....    20
 Integral Threshold     Thresh          ....  1.000e-10 Eh
 Primitive CutOff       TCut            ....  1.000e-11 Eh

Convergence Tolerance:
 Convergence Check Mode ConvCheckMode   .... Total+1el-Energy
 Convergence forced     ConvForced      .... 0
 Energy Change          TolE            ....  1.000e-06 Eh
 1-El. energy change                    ....  1.000e-03 Eh
 Orbital Gradient       TolG            ....  5.000e-05
 Orbital Rotation angle TolX            ....  5.000e-05
 DIIS Error             TolErr          ....  1.000e-06


Diagonalization of the overlap matrix:
Smallest eigenvalue                        ... 5.456e-04
Time for diagonalization                   ...    0.016 sec
Threshold for overlap eigenvalues          ... 1.000e-08
Number of eigenvalues below threshold      ... 0
Time for construction of square roots      ...    0.028 sec
Total time needed                          ...    0.044 sec

-------------------
DFT GRID GENERATION
-------------------

General Integration Accuracy     IntAcc      ...  4.340
Radial Grid Type                 RadialGrid  ... Gauss-Chebyshev
Angular Grid (max. acc.)         AngularGrid ... Lebedev-110
Angular grid pruning method      GridPruning ... 3 (G Style)
Weight generation scheme         WeightScheme... Becke
Basis function cutoff            BFCut       ...    1.0000e-10
Integration weight cutoff        WCut        ...    1.0000e-14
Grids for H and He will be reduced by one unit

# of grid points (after initial pruning)     ...  41088 (   0.0 sec)
# of grid points (after weights+screening)   ...  36908 (   0.0 sec)
nearest neighbour list constructed           ...    0.0 sec
Grid point re-assignment to atoms done       ...    0.0 sec
Grid point division into batches done        ...    0.0 sec
Reduced shell lists constructed in    0.1 sec

Total number of grid points                  ...    36908
Total number of batches                      ...      594
Average number of points per batch           ...       62
Average number of grid points per atom       ...     1086
Average number of shells per batch           ...    76.03 (49.37%)
Average number of basis functions per batch  ...   149.87 (46.54%)
Average number of large shells per batch     ...    48.23 (63.44%)
Average number of large basis fcns per batch ...    99.72 (66.54%)
Maximum spatial batch extension              ...  17.47, 14.96, 12.22 au
Average spatial batch extension              ...   0.23,  0.23,  0.20 au

Time for grid setup =    0.168 sec

------------------------------
INITIAL GUESS: MODEL POTENTIAL
------------------------------
Loading Hartree-Fock densities                     ... done
Calculating cut-offs                               ... done
Setting up the integral package                    ... done
Initializing the effective Hamiltonian             ... done
Starting the Coulomb interaction                   ... done (   0.0 sec)
Reading the grid                                   ... done
Mapping shells                                     ... done
Starting the XC term evaluation                    ... done (   0.0 sec)
  promolecular density results
     # of electrons  =    134.009142261
     EX              =   -126.776862343
     EC              =     -4.627050390
     EX+EC           =   -131.403912733
Transforming the Hamiltonian                       ... done (   0.0 sec)
Diagonalizing the Hamiltonian                      ... done (   0.0 sec)
Back transforming the eigenvectors                 ... done (   0.0 sec)
Now organizing SCF variables                       ... done
                      ------------------
                      INITIAL GUESS DONE (   0.4 sec)
                      ------------------
--------------
SCF ITERATIONS
--------------
ITER       Energy         Delta-E        Max-DP      RMS-DP      [F,P]     Damp
               ***  Starting incremental Fock matrix formation  ***
  0  -1339.3743041689   0.000000000000 0.06644284  0.00166384  0.1724630 0.7000
  1  -1339.5807676899  -0.206463520985 0.04462762  0.00120907  0.0997866 0.7000
                               ***Turning on DIIS***
  2  -1339.6795128250  -0.098745135094 0.09079387  0.00227841  0.0511838 0.0000
  3  -1339.8273941191  -0.147881294038 0.04785568  0.00104869  0.0593011 0.0000
  4  -1339.8604389002  -0.033044781159 0.00855220  0.00022411  0.0081638 0.0000
  5  -1339.8615117733  -0.001072873106 0.00384037  0.00010902  0.0040747 0.0000
                      *** Initiating the SOSCF procedure ***
                           *** Shutting down DIIS ***
                      *** Re-Reading the Fockian *** 
                      *** Removing any level shift *** 
ITER      Energy       Delta-E        Grad      Rot      Max-DP    RMS-DP
  6  -1339.86173769  -0.0002259150  0.001556  0.001556  0.002140  0.000058
               *** Restarting incremental Fock matrix formation ***
  7  -1339.86180427  -0.0000665793  0.000913  0.002552  0.001813  0.000036
  8  -1339.86183080  -0.0000265283  0.000380  0.002948  0.002268  0.000047
  9  -1339.86183676  -0.0000059653  0.000368  0.000725  0.000578  0.000015
 10  -1339.86184033  -0.0000035732  0.000077  0.000196  0.000297  0.000005
 11  -1339.86184044  -0.0000001015  0.000027  0.000057  0.000113  0.000002
                  ***Gradient check signals convergence***
              ***Rediagonalizing the Fockian in SOSCF/NRSCF***

               *****************************************************
               *                     SUCCESS                       *
               *           SCF CONVERGED AFTER  12 CYCLES          *
               *****************************************************

Setting up the final grid:

General Integration Accuracy     IntAcc      ...  4.670
Radial Grid Type                 RadialGrid  ... Gauss-Chebyshev
Angular Grid (max. acc.)         AngularGrid ... Lebedev-302
Angular grid pruning method      GridPruning ... 3 (G Style)
Weight generation scheme         WeightScheme... Becke
Basis function cutoff            BFCut       ...    1.0000e-10
Integration weight cutoff        WCut        ...    1.0000e-14
Grids for H and He will be reduced by one unit

# of grid points (after initial pruning)     ... 161752 (   0.0 sec)
# of grid points (after weights+screening)   ... 142622 (   0.1 sec)
nearest neighbour list constructed           ...    0.0 sec
Grid point re-assignment to atoms done       ...    0.0 sec
Grid point division into batches done        ...    0.5 sec
Reduced shell lists constructed in    0.6 sec

Total number of grid points                  ...   142622
Total number of batches                      ...     2246
Average number of points per batch           ...       63
Average number of grid points per atom       ...     4195
Average number of shells per batch           ...    70.87 (46.02%)
Average number of basis functions per batch  ...   139.12 (43.20%)
Average number of large shells per batch     ...    43.50 (61.38%)
Average number of large basis fcns per batch ...    89.15 (64.08%)
Maximum spatial batch extension              ...  15.20, 13.94, 14.86 au
Average spatial batch extension              ...   0.14,  0.15,  0.14 au

Final grid set up in    0.9 sec
Final integration                            ... done (   0.3 sec)
Change in XC energy                          ...     0.006438887
Integrated number of electrons               ...   134.000096613
Previous integrated no of electrons          ...   134.009034046

----------------
TOTAL SCF ENERGY
----------------

Total Energy       :        -1339.85540163 Eh          -36459.31903 eV

Components:
Nuclear Repulsion  :         1289.89562074 Eh           35099.84428 eV
Electronic Energy  :        -2629.75102237 Eh          -71559.16332 eV
One Electron Energy:        -4396.35425242 Eh         -119630.88112 eV
Two Electron Energy:         1766.60323006 Eh           48071.71781 eV

Virial components:
Potential Energy   :        -2671.84594889 Eh          -72704.62450 eV
Kinetic Energy     :         1331.99054726 Eh           36245.30547 eV
Virial Ratio       :            2.00590459


DFT components:
N(Alpha)           :       67.000048306535 electrons
N(Beta)            :       67.000048306535 electrons
N(Total)           :      134.000096613071 electrons
E(XC)              :      -94.344519357277 Eh       
DFET-embed. en.    :        0.000000000000 Eh       

---------------
SCF CONVERGENCE
---------------

  Last Energy change         ...   -7.9054e-08  Tolerance :   1.0000e-06
  Last MAX-Density change    ...    2.3321e-05  Tolerance :   1.0000e-05
  Last RMS-Density change    ...    4.2633e-07  Tolerance :   1.0000e-06
  Last Orbital Gradient      ...    3.4066e-06  Tolerance :   5.0000e-05
  Last Orbital Rotation      ...    1.4148e-05  Tolerance :   5.0000e-05

             **** THE GBW FILE WAS UPDATED (config_6610.gbw) ****
             **** DENSITY FILE WAS UPDATED (config_6610.scfp) ****
             **** ENERGY FILE WAS UPDATED (config_6610.en.tmp) ****
             **** THE GBW FILE WAS UPDATED (config_6610.gbw) ****
             **** DENSITY FILE WAS UPDATED (config_6610.scfp) ****
----------------
ORBITAL ENERGIES
----------------

  NO   OCC          E(Eh)            E(eV) 
   0   2.0000     -88.968928     -2420.9676 
   1   2.0000     -88.965380     -2420.8711 
   2   2.0000     -10.332523      -281.1623 
   3   2.0000     -10.326344      -280.9941 
   4   2.0000     -10.309604      -280.5386 
   5   2.0000     -10.303442      -280.3709 
   6   2.0000     -10.297891      -280.2198 
   7   2.0000     -10.296917      -280.1934 
   8   2.0000     -10.293535      -280.1013 
   9   2.0000     -10.290488      -280.0184 
  10   2.0000     -10.288761      -279.9714 
  11   2.0000     -10.288691      -279.9695 
  12   2.0000     -10.280564      -279.7484 
  13   2.0000     -10.276415      -279.6355 
  14   2.0000     -10.275805      -279.6189 
  15   2.0000     -10.275181      -279.6019 
  16   2.0000      -8.082802      -219.9442 
  17   2.0000      -8.080160      -219.8723 
  18   2.0000      -6.041476      -164.3969 
  19   2.0000      -6.038557      -164.3175 
  20   2.0000      -6.037398      -164.2859 
  21   2.0000      -6.034935      -164.2189 
  22   2.0000      -6.033470      -164.1791 
  23   2.0000      -6.030755      -164.1052 
  24   2.0000      -1.010559       -27.4987 
  25   2.0000      -0.985948       -26.8290 
  26   2.0000      -0.913550       -24.8590 
  27   2.0000      -0.907356       -24.6904 
  28   2.0000      -0.874163       -23.7872 
  29   2.0000      -0.852506       -23.1979 
  30   2.0000      -0.849461       -23.1150 
  31   2.0000      -0.817146       -22.2357 
  32   2.0000      -0.783543       -21.3213 
  33   2.0000      -0.773422       -21.0459 
  34   2.0000      -0.715066       -19.4579 
  35   2.0000      -0.694866       -18.9083 
  36   2.0000      -0.693176       -18.8623 
  37   2.0000      -0.666234       -18.1291 
  38   2.0000      -0.638950       -17.3867 
  39   2.0000      -0.620001       -16.8711 
  40   2.0000      -0.599693       -16.3185 
  41   2.0000      -0.569536       -15.4979 
  42   2.0000      -0.567898       -15.4533 
  43   2.0000      -0.559404       -15.2222 
  44   2.0000      -0.531747       -14.4696 
  45   2.0000      -0.521893       -14.2014 
  46   2.0000      -0.517638       -14.0857 
  47   2.0000      -0.507099       -13.7989 
  48   2.0000      -0.502295       -13.6681 
  49   2.0000      -0.501324       -13.6417 
  50   2.0000      -0.493853       -13.4384 
  51   2.0000      -0.490297       -13.3417 
  52   2.0000      -0.473287       -12.8788 
  53   2.0000      -0.466651       -12.6982 
  54   2.0000      -0.461826       -12.5669 
  55   2.0000      -0.451865       -12.2959 
  56   2.0000      -0.444154       -12.0860 
  57   2.0000      -0.435656       -11.8548 
  58   2.0000      -0.433858       -11.8059 
  59   2.0000      -0.423913       -11.5353 
  60   2.0000      -0.421086       -11.4583 
  61   2.0000      -0.414930       -11.2908 
  62   2.0000      -0.406147       -11.0518 
  63   2.0000      -0.348930        -9.4949 
  64   2.0000      -0.336171        -9.1477 
  65   2.0000      -0.330874        -9.0035 
  66   2.0000      -0.290284        -7.8990 
  67   0.0000       0.027231         0.7410 
  68   0.0000       0.071108         1.9349 
  69   0.0000       0.104025         2.8307 
  70   0.0000       0.123875         3.3708 
  71   0.0000       0.128814         3.5052 
  72   0.0000       0.143074         3.8933 
  73   0.0000       0.146428         3.9845 
  74   0.0000       0.152428         4.1478 
  75   0.0000       0.165557         4.5050 
  76   0.0000       0.170683         4.6445 
  77   0.0000       0.175246         4.7687 
  78   0.0000       0.185474         5.0470 
  79   0.0000       0.190877         5.1940 
  80   0.0000       0.207946         5.6585 
  81   0.0000       0.209207         5.6928 
  82   0.0000       0.213943         5.8217 
  83   0.0000       0.218589         5.9481 
  84   0.0000       0.223977         6.0947 
  85   0.0000       0.237724         6.4688 
  86   0.0000       0.239803         6.5254 
  87   0.0000       0.245391         6.6774 
  88   0.0000       0.249346         6.7850 
  89   0.0000       0.260275         7.0824 
  90   0.0000       0.263830         7.1792 
  91   0.0000       0.266344         7.2476 
  92   0.0000       0.276617         7.5271 
  93   0.0000       0.300432         8.1752 
  94   0.0000       0.316324         8.6076 
  95   0.0000       0.319235         8.6868 
  96   0.0000       0.328051         8.9267 
  97   0.0000       0.338183         9.2024 
  98   0.0000       0.345187         9.3930 
  99   0.0000       0.375222        10.2103 
 100   0.0000       0.382669        10.4130 
 101   0.0000       0.396183        10.7807 
 102   0.0000       0.419497        11.4151 
 103   0.0000       0.432372        11.7654 
 104   0.0000       0.441177        12.0050 
 105   0.0000       0.450509        12.2590 
 106   0.0000       0.462282        12.5793 
 107   0.0000       0.479827        13.0567 
 108   0.0000       0.491388        13.3713 
 109   0.0000       0.501906        13.6576 
 110   0.0000       0.513955        13.9854 
 111   0.0000       0.520114        14.1530 
 112   0.0000       0.524904        14.2834 
 113   0.0000       0.528186        14.3727 
 114   0.0000       0.536715        14.6048 
 115   0.0000       0.540892        14.7184 
 116   0.0000       0.547180        14.8895 
 117   0.0000       0.553152        15.0520 
 118   0.0000       0.565703        15.3936 
 119   0.0000       0.572544        15.5797 
 120   0.0000       0.586088        15.9483 
 121   0.0000       0.596052        16.2194 
 122   0.0000       0.601943        16.3797 
 123   0.0000       0.602588        16.3972 
 124   0.0000       0.614176        16.7126 
 125   0.0000       0.629357        17.1257 
 126   0.0000       0.644874        17.5479 
 127   0.0000       0.650635        17.7047 
 128   0.0000       0.657898        17.9023 
 129   0.0000       0.662931        18.0393 
 130   0.0000       0.669336        18.2136 
 131   0.0000       0.684971        18.6390 
 132   0.0000       0.689948        18.7745 
 133   0.0000       0.702349        19.1119 
 134   0.0000       0.704850        19.1799 
 135   0.0000       0.715764        19.4769 
 136   0.0000       0.723719        19.6934 
 137   0.0000       0.726596        19.7717 
 138   0.0000       0.729688        19.8558 
 139   0.0000       0.737238        20.0613 
 140   0.0000       0.740697        20.1554 
 141   0.0000       0.751846        20.4588 
 142   0.0000       0.757050        20.6004 
 143   0.0000       0.761756        20.7284 
 144   0.0000       0.763135        20.7659 
 145   0.0000       0.771251        20.9868 
 146   0.0000       0.775831        21.1114 
 147   0.0000       0.777306        21.1516 
 148   0.0000       0.780022        21.2255 
 149   0.0000       0.786987        21.4150 
 150   0.0000       0.788447        21.4547 
 151   0.0000       0.793511        21.5925 
 152   0.0000       0.795671        21.6513 
 153   0.0000       0.799088        21.7443 
 154   0.0000       0.804156        21.8822 
 155   0.0000       0.810082        22.0435 
 156   0.0000       0.814656        22.1679 
 157   0.0000       0.820304        22.3216 
 158   0.0000       0.821381        22.3509 
 159   0.0000       0.828157        22.5353 
 160   0.0000       0.832163        22.6443 
 161   0.0000       0.839461        22.8429 
 162   0.0000       0.845045        22.9948 
 163   0.0000       0.855651        23.2834 
 164   0.0000       0.859667        23.3927 
 165   0.0000       0.870282        23.6816 
 166   0.0000       0.881196        23.9786 
 167   0.0000       0.898383        24.4462 
 168   0.0000       0.906327        24.6624 
 169   0.0000       0.916890        24.9498 
 170   0.0000       0.925709        25.1898 
 171   0.0000       0.932440        25.3730 
 172   0.0000       0.942754        25.6536 
 173   0.0000       0.955386        25.9974 
 174   0.0000       0.967076        26.3155 
 175   0.0000       0.973444        26.4888 
 176   0.0000       0.987622        26.8745 
 177   0.0000       1.010977        27.5101 
 178   0.0000       1.017597        27.6902 
 179   0.0000       1.045078        28.4380 
 180   0.0000       1.068292        29.0697 
 181   0.0000       1.080767        29.4092 
 182   0.0000       1.092497        29.7284 
 183   0.0000       1.105940        30.0941 
 184   0.0000       1.113882        30.3103 
 185   0.0000       1.124803        30.6075 
 186   0.0000       1.142838        31.0982 
 187   0.0000       1.156746        31.4767 
 188   0.0000       1.168244        31.7895 
 189   0.0000       1.191141        32.4126 
 190   0.0000       1.215202        33.0673 
 191   0.0000       1.223246        33.2862 
 192   0.0000       1.232538        33.5391 
 193   0.0000       1.269914        34.5561 
 194   0.0000       1.286122        34.9972 
 195   0.0000       1.302843        35.4522 
 196   0.0000       1.322764        35.9943 
 197   0.0000       1.332023        36.2462 
 198   0.0000       1.362023        37.0625 
 199   0.0000       1.379901        37.5490 
 200   0.0000       1.394825        37.9551 
 201   0.0000       1.417648        38.5762 
 202   0.0000       1.433332        39.0030 
 203   0.0000       1.442769        39.2597 
 204   0.0000       1.451328        39.4926 
 205   0.0000       1.488242        40.4971 
 206   0.0000       1.493885        40.6507 
 207   0.0000       1.513895        41.1952 
 208   0.0000       1.535119        41.7727 
 209   0.0000       1.568245        42.6741 
 210   0.0000       1.577632        42.9296 
 211   0.0000       1.605872        43.6980 
 212   0.0000       1.631770        44.4027 
 213   0.0000       1.636326        44.5267 
 214   0.0000       1.646300        44.7981 
 215   0.0000       1.649487        44.8848 
 216   0.0000       1.667567        45.3768 
 217   0.0000       1.699387        46.2427 
 218   0.0000       1.759562        47.8801 
 219   0.0000       1.792478        48.7758 
 220   0.0000       1.809780        49.2466 
 221   0.0000       1.810952        49.2785 
 222   0.0000       1.817835        49.4658 
 223   0.0000       1.827990        49.7421 
 224   0.0000       1.830747        49.8172 
 225   0.0000       1.840380        50.0793 
 226   0.0000       1.845148        50.2090 
 227   0.0000       1.846845        50.2552 
 228   0.0000       1.851600        50.3846 
 229   0.0000       1.869256        50.8650 
 230   0.0000       1.873655        50.9847 
 231   0.0000       1.883404        51.2500 
 232   0.0000       1.886666        51.3388 
 233   0.0000       1.899766        51.6953 
 234   0.0000       1.904414        51.8217 
 235   0.0000       1.907631        51.9093 
 236   0.0000       1.914834        52.1053 
 237   0.0000       1.925252        52.3888 
 238   0.0000       1.930992        52.5450 
 239   0.0000       1.939639        52.7803 
 240   0.0000       1.945507        52.9399 
 241   0.0000       1.952201        53.1221 
 242   0.0000       1.959034        53.3080 
 243   0.0000       1.977056        53.7984 
 244   0.0000       1.982102        53.9357 
 245   0.0000       1.989826        54.1459 
 246   0.0000       1.999309        54.4040 
 247   0.0000       2.016011        54.8585 
 248   0.0000       2.028436        55.1966 
 249   0.0000       2.043967        55.6192 
 250   0.0000       2.058935        56.0265 
 251   0.0000       2.060376        56.0657 
 252   0.0000       2.068355        56.2828 
 253   0.0000       2.090499        56.8854 
 254   0.0000       2.098828        57.1120 
 255   0.0000       2.118899        57.6582 
 256   0.0000       2.128608        57.9224 
 257   0.0000       2.143534        58.3285 
 258   0.0000       2.158203        58.7277 
 259   0.0000       2.172299        59.1113 
 260   0.0000       2.188059        59.5401 
 261   0.0000       2.189260        59.5728 
 262   0.0000       2.203275        59.9542 
 263   0.0000       2.212629        60.2087 
 264   0.0000       2.232860        60.7592 
 265   0.0000       2.253657        61.3251 
 266   0.0000       2.281108        62.0721 
 267   0.0000       2.303016        62.6682 
 268   0.0000       2.316852        63.0447 
 269   0.0000       2.322761        63.2055 
 270   0.0000       2.337252        63.5998 
 271   0.0000       2.378353        64.7183 
 272   0.0000       2.381338        64.7995 
 273   0.0000       2.395454        65.1836 
 274   0.0000       2.420121        65.8548 
 275   0.0000       2.425743        66.0078 
 276   0.0000       2.439492        66.3819 
 277   0.0000       2.462077        66.9965 
 278   0.0000       2.486108        67.6504 
 279   0.0000       2.489075        67.7312 
 280   0.0000       2.496102        67.9224 
 281   0.0000       2.514074        68.4114 
 282   0.0000       2.531369        68.8821 
 283   0.0000       2.538823        69.0849 
 284   0.0000       2.554332        69.5069 
 285   0.0000       2.576344        70.1059 
 286   0.0000       2.584804        70.3361 
 287   0.0000       2.590403        70.4884 
 288   0.0000       2.616974        71.2115 
 289   0.0000       2.646647        72.0189 
 290   0.0000       2.658538        72.3425 
 291   0.0000       2.664472        72.5040 
 292   0.0000       2.667566        72.5882 
 293   0.0000       2.717890        73.9576 
 294   0.0000       2.747820        74.7720 
 295   0.0000       2.760769        75.1243 
 296   0.0000       2.775545        75.5264 
 297   0.0000       2.788843        75.8883 
 298   0.0000       2.818778        76.7029 
 299   0.0000       2.845993        77.4434 
 300   0.0000       2.874979        78.2321 
 301   0.0000       2.899060        78.8874 
 302   0.0000       2.917431        79.3873 
 303   0.0000       2.955385        80.4201 
 304   0.0000       2.971159        80.8494 
 305   0.0000       2.983671        81.1898 
 306   0.0000       3.001168        81.6659 
 307   0.0000       3.025809        82.3364 
 308   0.0000       3.039635        82.7127 
 309   0.0000       3.057118        83.1884 
 310   0.0000       3.074774        83.6689 
 311   0.0000       3.080185        83.8161 
 312   0.0000       3.130215        85.1775 
 313   0.0000       3.131788        85.2203 
 314   0.0000       3.146597        85.6233 
 315   0.0000       3.172533        86.3290 
 316   0.0000       3.178877        86.5017 
 317   0.0000       3.199262        87.0563 
 318   0.0000       3.243942        88.2721 
 319   0.0000       3.279871        89.2498 
 320   0.0000       3.397228        92.4433 
 321   0.0000       3.522038        95.8395 

                    ********************************
                    * MULLIKEN POPULATION ANALYSIS *
                    ********************************

-----------------------
MULLIKEN ATOMIC CHARGES
-----------------------
   0 S :    0.115574
   1 C :   -0.095405
   2 C :   -0.106702
   3 C :    0.033727
   4 C :   -0.155536
   5 H :    0.007480
   6 C :    0.087775
   7 H :    0.009848
   8 H :    0.020994
   9 C :   -0.107349
  10 H :    0.021812
  11 H :    0.045502
  12 C :   -0.029837
  13 H :    0.040475
  14 H :    0.013574
  15 H :    0.036357
  16 S :    0.101057
  17 C :   -0.030105
  18 C :   -0.036343
  19 C :   -0.010922
  20 C :   -0.181724
  21 H :    0.018078
  22 C :    0.061752
  23 H :    0.012775
  24 H :    0.034544
  25 C :   -0.077768
  26 H :    0.034733
  27 H :    0.033165
  28 C :   -0.026011
  29 H :    0.024363
  30 H :    0.044788
  31 H :    0.016198
  32 H :    0.037487
  33 H :    0.005641
Sum of atomic charges:    0.0000000

--------------------------------
MULLIKEN REDUCED ORBITAL CHARGES
--------------------------------
  0 S s       :     5.843948  s :     5.843948
      pz      :     3.004985  p :     9.936085
      px      :     3.297819
      py      :     3.633282
      dz2     :     0.016403  d :     0.104393
      dxz     :     0.040132
      dyz     :     0.020037
      dx2y2   :     0.014968
      dxy     :     0.012852
  1 C s       :     3.156379  s :     3.156379
      pz      :     0.908362  p :     2.905088
      px      :     0.879089
      py      :     1.117637
      dz2     :     0.007948  d :     0.033939
      dxz     :     0.010727
      dyz     :     0.002774
      dx2y2   :     0.004991
      dxy     :     0.007499
  2 C s       :     3.085919  s :     3.085919
      pz      :     1.008887  p :     2.976273
      px      :     0.978154
      py      :     0.989233
      dz2     :     0.010836  d :     0.044510
      dxz     :     0.012427
      dyz     :     0.006801
      dx2y2   :     0.006707
      dxy     :     0.007738
  3 C s       :     3.184613  s :     3.184613
      pz      :     0.884161  p :     2.748559
      px      :     0.851149
      py      :     1.013250
      dz2     :     0.008215  d :     0.033100
      dxz     :     0.009716
      dyz     :     0.004627
      dx2y2   :     0.004919
      dxy     :     0.005623
  4 C s       :     3.071101  s :     3.071101
      pz      :     1.004616  p :     3.040986
      px      :     0.962271
      py      :     1.074099
      dz2     :     0.008496  d :     0.043449
      dxz     :     0.015465
      dyz     :     0.006313
      dx2y2   :     0.005133
      dxy     :     0.008042
  5 H s       :     0.968381  s :     0.968381
      pz      :     0.009011  p :     0.024139
      px      :     0.009024
      py      :     0.006103
  6 C s       :     2.931218  s :     2.931218
      pz      :     1.000040  p :     2.945390
      px      :     0.950475
      py      :     0.994875
      dz2     :     0.005528  d :     0.035617
      dxz     :     0.005711
      dyz     :     0.008893
      dx2y2   :     0.007748
      dxy     :     0.007737
  7 H s       :     0.965887  s :     0.965887
      pz      :     0.009033  p :     0.024265
      px      :     0.007167
      py      :     0.008064
  8 H s       :     0.955601  s :     0.955601
      pz      :     0.012690  p :     0.023404
      px      :     0.004167
      py      :     0.006547
  9 C s       :     3.080501  s :     3.080501
      pz      :     1.029365  p :     2.989890
      px      :     0.978436
      py      :     0.982089
      dz2     :     0.006420  d :     0.036958
      dxz     :     0.005494
      dyz     :     0.008361
      dx2y2   :     0.008830
      dxy     :     0.007854
 10 H s       :     0.954558  s :     0.954558
      pz      :     0.012477  p :     0.023630
      px      :     0.005046
      py      :     0.006108
 11 H s       :     0.935206  s :     0.935206
      pz      :     0.007681  p :     0.019292
      px      :     0.005280
      py      :     0.006331
 12 C s       :     2.995573  s :     2.995573
      pz      :     1.032815  p :     3.005191
      px      :     0.968052
      py      :     1.004325
      dz2     :     0.002739  d :     0.029073
      dxz     :     0.007657
      dyz     :     0.006907
      dx2y2   :     0.007983
      dxy     :     0.003785
 13 H s       :     0.936681  s :     0.936681
      pz      :     0.005970  p :     0.022844
      px      :     0.004648
      py      :     0.012226
 14 H s       :     0.960930  s :     0.960930
      pz      :     0.009726  p :     0.025495
      px      :     0.005373
      py      :     0.010397
 15 H s       :     0.941261  s :     0.941261
      pz      :     0.010114  p :     0.022382
      px      :     0.007244
      py      :     0.005023
 16 S s       :     5.853014  s :     5.853014
      pz      :     3.161139  p :     9.944828
      px      :     3.335879
      py      :     3.447810
      dz2     :     0.038700  d :     0.101100
      dxz     :     0.013811
      dyz     :     0.013883
      dx2y2   :     0.014395
      dxy     :     0.020312
 17 C s       :     3.095477  s :     3.095477
      pz      :     0.857554  p :     2.895190
      px      :     1.007795
      py      :     1.029842
      dz2     :     0.011225  d :     0.039437
      dxz     :     0.008931
      dyz     :     0.008208
      dx2y2   :     0.005778
      dxy     :     0.005294
 18 C s       :     3.146906  s :     3.146906
      pz      :     0.866052  p :     2.849337
      px      :     0.989485
      py      :     0.993800
      dz2     :     0.009986  d :     0.040100
      dxz     :     0.008855
      dyz     :     0.006972
      dx2y2   :     0.008425
      dxy     :     0.005861
 19 C s       :     3.036153  s :     3.036153
      pz      :     0.977031  p :     2.928895
      px      :     0.964381
      py      :     0.987483
      dz2     :     0.009782  d :     0.045873
      dxz     :     0.012294
      dyz     :     0.010788
      dx2y2   :     0.007093
      dxy     :     0.005916
 20 C s       :     3.060289  s :     3.060289
      pz      :     1.046846  p :     3.076862
      px      :     1.010008
      py      :     1.020008
      dz2     :     0.013631  d :     0.044573
      dxz     :     0.009287
      dyz     :     0.009547
      dx2y2   :     0.005335
      dxy     :     0.006773
 21 H s       :     0.957498  s :     0.957498
      pz      :     0.015689  p :     0.024424
      px      :     0.003963
      py      :     0.004772
 22 C s       :     2.951654  s :     2.951654
      pz      :     1.002718  p :     2.950411
      px      :     0.989366
      py      :     0.958327
      dz2     :     0.009745  d :     0.036184
      dxz     :     0.004432
      dyz     :     0.006180
      dx2y2   :     0.005753
      dxy     :     0.010073
 23 H s       :     0.964604  s :     0.964604
      pz      :     0.012921  p :     0.022622
      px      :     0.004989
      py      :     0.004712
 24 H s       :     0.942768  s :     0.942768
      pz      :     0.005010  p :     0.022688
      px      :     0.010910
      py      :     0.006767
 25 C s       :     3.051961  s :     3.051961
      pz      :     1.044684  p :     2.989897
      px      :     1.001919
      py      :     0.943293
      dz2     :     0.008848  d :     0.035910
      dxz     :     0.003293
      dyz     :     0.007018
      dx2y2   :     0.006486
      dxy     :     0.010265
 26 H s       :     0.938791  s :     0.938791
      pz      :     0.015434  p :     0.026476
      px      :     0.004144
      py      :     0.006898
 27 H s       :     0.944096  s :     0.944096
      pz      :     0.005037  p :     0.022739
      px      :     0.009683
      py      :     0.008019
 28 C s       :     2.990650  s :     2.990650
      pz      :     1.009970  p :     3.007383
      px      :     0.971471
      py      :     1.025942
      dz2     :     0.005624  d :     0.027978
      dxz     :     0.002533
      dyz     :     0.008290
      dx2y2   :     0.004239
      dxy     :     0.007291
 29 H s       :     0.949945  s :     0.949945
      pz      :     0.010582  p :     0.025692
      px      :     0.005702
      py      :     0.009408
 30 H s       :     0.932877  s :     0.932877
      pz      :     0.011710  p :     0.022335
      px      :     0.003772
      py      :     0.006853
 31 H s       :     0.959303  s :     0.959303
      pz      :     0.005414  p :     0.024499
      px      :     0.010482
      py      :     0.008603
 32 H s       :     0.937660  s :     0.937660
      pz      :     0.015596  p :     0.024854
      px      :     0.003341
      py      :     0.005917
 33 H s       :     0.967341  s :     0.967341
      pz      :     0.006728  p :     0.027018
      px      :     0.011321
      py      :     0.008969


                     *******************************
                     * LOEWDIN POPULATION ANALYSIS *
                     *******************************

----------------------
LOEWDIN ATOMIC CHARGES
----------------------
   0 S :    0.399391
   1 C :   -0.203203
   2 C :   -0.059704
   3 C :   -0.064471
   4 C :   -0.187648
   5 H :    0.027948
   6 C :   -0.027828
   7 H :    0.026096
   8 H :    0.027131
   9 C :   -0.045661
  10 H :    0.020535
  11 H :    0.034346
  12 C :   -0.068246
  13 H :    0.032469
  14 H :    0.014382
  15 H :    0.028562
  16 S :    0.387560
  17 C :   -0.150781
  18 C :   -0.071413
  19 C :   -0.053179
  20 C :   -0.188647
  21 H :    0.036165
  22 C :   -0.029890
  23 H :    0.025793
  24 H :    0.033185
  25 C :   -0.037808
  26 H :    0.020580
  27 H :    0.026938
  28 C :   -0.063898
  29 H :    0.025202
  30 H :    0.030194
  31 H :    0.020509
  32 H :    0.028853
  33 H :    0.006537

-------------------------------
LOEWDIN REDUCED ORBITAL CHARGES
-------------------------------
  0 S s       :     5.515801  s :     5.515801
      pz      :     3.019570  p :     9.955833
      px      :     3.340723
      py      :     3.595540
      dz2     :     0.021363  d :     0.128974
      dxz     :     0.051845
      dyz     :     0.025300
      dx2y2   :     0.016833
      dxy     :     0.013633
  1 C s       :     2.923206  s :     2.923206
      pz      :     1.059469  p :     3.198742
      px      :     1.023803
      py      :     1.115469
      dz2     :     0.020380  d :     0.081255
      dxz     :     0.028453
      dyz     :     0.004623
      dx2y2   :     0.012426
      dxy     :     0.015374
  2 C s       :     2.860848  s :     2.860848
      pz      :     1.056029  p :     3.088625
      px      :     1.059366
      py      :     0.973229
      dz2     :     0.028423  d :     0.110230
      dxz     :     0.033946
      dyz     :     0.014972
      dx2y2   :     0.017812
      dxy     :     0.015078
  3 C s       :     2.868016  s :     2.868016
      pz      :     1.037682  p :     3.108311
      px      :     1.045788
      py      :     1.024842
      dz2     :     0.023556  d :     0.088143
      dxz     :     0.027755
      dyz     :     0.009905
      dx2y2   :     0.014835
      dxy     :     0.012093
  4 C s       :     2.917452  s :     2.917452
      pz      :     1.025933  p :     3.167400
      px      :     1.080136
      py      :     1.061331
      dz2     :     0.021139  d :     0.102797
      dxz     :     0.038086
      dyz     :     0.013387
      dx2y2   :     0.013689
      dxy     :     0.016495
  5 H s       :     0.899506  s :     0.899506
      pz      :     0.027103  p :     0.072545
      px      :     0.026982
      py      :     0.018460
  6 C s       :     2.818007  s :     2.818007
      pz      :     1.065850  p :     3.119371
      px      :     1.014837
      py      :     1.038684
      dz2     :     0.015037  d :     0.090449
      dxz     :     0.015070
      dyz     :     0.020818
      dx2y2   :     0.020364
      dxy     :     0.019160
  7 H s       :     0.903076  s :     0.903076
      pz      :     0.024489  p :     0.070829
      px      :     0.021763
      py      :     0.024576
  8 H s       :     0.903070  s :     0.903070
      pz      :     0.035674  p :     0.069800
      px      :     0.013869
      py      :     0.020256
  9 C s       :     2.843395  s :     2.843395
      pz      :     1.067149  p :     3.113614
      px      :     1.025910
      py      :     1.020555
      dz2     :     0.016427  d :     0.088652
      dxz     :     0.012462
      dyz     :     0.019222
      dx2y2   :     0.021887
      dxy     :     0.018654
 10 H s       :     0.907219  s :     0.907219
      pz      :     0.036490  p :     0.072246
      px      :     0.016116
      py      :     0.019639
 11 H s       :     0.911852  s :     0.911852
      pz      :     0.019901  p :     0.053802
      px      :     0.015221
      py      :     0.018679
 12 C s       :     2.831513  s :     2.831513
      pz      :     1.072188  p :     3.162470
      px      :     1.029324
      py      :     1.060958
      dz2     :     0.006966  d :     0.074262
      dxz     :     0.018515
      dyz     :     0.017822
      dx2y2   :     0.022503
      dxy     :     0.008457
 13 H s       :     0.904267  s :     0.904267
      pz      :     0.016383  p :     0.063264
      px      :     0.013720
      py      :     0.033161
 14 H s       :     0.912393  s :     0.912393
      pz      :     0.027096  p :     0.073225
      px      :     0.016745
      py      :     0.029384
 15 H s       :     0.909936  s :     0.909936
      pz      :     0.027579  p :     0.061502
      px      :     0.021529
      py      :     0.012394
 16 S s       :     5.528078  s :     5.528078
      pz      :     3.187804  p :     9.961079
      px      :     3.333077
      py      :     3.440199
      dz2     :     0.049785  d :     0.123283
      dxz     :     0.015696
      dyz     :     0.014990
      dx2y2   :     0.016902
      dxy     :     0.025910
 17 C s       :     2.892123  s :     2.892123
      pz      :     1.003221  p :     3.163569
      px      :     1.080502
      py      :     1.079846
      dz2     :     0.027827  d :     0.095089
      dxz     :     0.021346
      dyz     :     0.020107
      dx2y2   :     0.011115
      dxy     :     0.014695
 18 C s       :     2.842376  s :     2.842376
      pz      :     1.042677  p :     3.123436
      px      :     1.042148
      py      :     1.038611
      dz2     :     0.027292  d :     0.105602
      dxz     :     0.024910
      dyz     :     0.018375
      dx2y2   :     0.018510
      dxy     :     0.016514
 19 C s       :     2.843695  s :     2.843695
      pz      :     1.066579  p :     3.093898
      px      :     1.024910
      py      :     1.002409
      dz2     :     0.028163  d :     0.115586
      dxz     :     0.033288
      dyz     :     0.027202
      dx2y2   :     0.012799
      dxy     :     0.014134
 20 C s       :     2.897395  s :     2.897395
      pz      :     1.082677  p :     3.183669
      px      :     1.038411
      py      :     1.062581
      dz2     :     0.036421  d :     0.107583
      dxz     :     0.023540
      dyz     :     0.022382
      dx2y2   :     0.010632
      dxy     :     0.014609
 21 H s       :     0.893950  s :     0.893950
      pz      :     0.042318  p :     0.069885
      px      :     0.013056
      py      :     0.014510
 22 C s       :     2.830686  s :     2.830686
      pz      :     1.044675  p :     3.109752
      px      :     1.038698
      py      :     1.026378
      dz2     :     0.023447  d :     0.089452
      dxz     :     0.010923
      dyz     :     0.015856
      dx2y2   :     0.013699
      dxy     :     0.025526
 23 H s       :     0.908269  s :     0.908269
      pz      :     0.037415  p :     0.065938
      px      :     0.014021
      py      :     0.014502
 24 H s       :     0.900522  s :     0.900522
      pz      :     0.013958  p :     0.066293
      px      :     0.031420
      py      :     0.020916
 25 C s       :     2.823227  s :     2.823227
      pz      :     1.080375  p :     3.126523
      px      :     1.033910
      py      :     1.012238
      dz2     :     0.021919  d :     0.088058
      dxz     :     0.006900
      dyz     :     0.018066
      dx2y2   :     0.015360
      dxy     :     0.025813
 26 H s       :     0.900390  s :     0.900390
      pz      :     0.043456  p :     0.079030
      px      :     0.014386
      py      :     0.021187
 27 H s       :     0.904677  s :     0.904677
      pz      :     0.015144  p :     0.068384
      px      :     0.029282
      py      :     0.023959
 28 C s       :     2.830241  s :     2.830241
      pz      :     1.063214  p :     3.162862
      px      :     1.029165
      py      :     1.070483
      dz2     :     0.015170  d :     0.070794
      dxz     :     0.005425
      dyz     :     0.020642
      dx2y2   :     0.009770
      dxy     :     0.019787
 29 H s       :     0.902132  s :     0.902132
      pz      :     0.029857  p :     0.072666
      px      :     0.016798
      py      :     0.026011
 30 H s       :     0.907226  s :     0.907226
      pz      :     0.032270  p :     0.062581
      px      :     0.011304
      py      :     0.019006
 31 H s       :     0.911163  s :     0.911163
      pz      :     0.013815  p :     0.068328
      px      :     0.030831
      py      :     0.023683
 32 H s       :     0.893992  s :     0.893992
      pz      :     0.045438  p :     0.077155
      px      :     0.012389
      py      :     0.019328
 33 H s       :     0.906969  s :     0.906969
      pz      :     0.026021  p :     0.086494
      px      :     0.033376
      py      :     0.027097


                      *****************************
                      * MAYER POPULATION ANALYSIS *
                      *****************************

  NA   - Mulliken gross atomic population
  ZA   - Total nuclear charge
  QA   - Mulliken gross atomic charge
  VA   - Mayer's total valence
  BVA  - Mayer's bonded valence
  FA   - Mayer's free valence

  ATOM       NA         ZA         QA         VA         BVA        FA
  0 S     15.8844    16.0000     0.1156     2.4710     2.4710     0.0000
  1 C      6.0954     6.0000    -0.0954     3.8371     3.8371     0.0000
  2 C      6.1067     6.0000    -0.1067     4.0643     4.0643     0.0000
  3 C      5.9663     6.0000     0.0337     3.9113     3.9113     0.0000
  4 C      6.1555     6.0000    -0.1555     3.9026     3.9026     0.0000
  5 H      0.9925     1.0000     0.0075     1.0011     1.0011     0.0000
  6 C      5.9122     6.0000     0.0878     3.9541     3.9541    -0.0000
  7 H      0.9902     1.0000     0.0098     0.9931     0.9931     0.0000
  8 H      0.9790     1.0000     0.0210     0.9889     0.9889     0.0000
  9 C      6.1073     6.0000    -0.1073     4.0881     4.0881     0.0000
 10 H      0.9782     1.0000     0.0218     0.9778     0.9778    -0.0000
 11 H      0.9545     1.0000     0.0455     0.9791     0.9791    -0.0000
 12 C      6.0298     6.0000    -0.0298     3.9879     3.9879     0.0000
 13 H      0.9595     1.0000     0.0405     0.9862     0.9862    -0.0000
 14 H      0.9864     1.0000     0.0136     0.9958     0.9958     0.0000
 15 H      0.9636     1.0000     0.0364     0.9858     0.9858     0.0000
 16 S     15.8989    16.0000     0.1011     2.4464     2.4464    -0.0000
 17 C      6.0301     6.0000    -0.0301     3.8667     3.8667    -0.0000
 18 C      6.0363     6.0000    -0.0363     4.0134     4.0134     0.0000
 19 C      6.0109     6.0000    -0.0109     4.0259     4.0259     0.0000
 20 C      6.1817     6.0000    -0.1817     3.9407     3.9407     0.0000
 21 H      0.9819     1.0000     0.0181     0.9945     0.9945    -0.0000
 22 C      5.9382     6.0000     0.0618     3.9256     3.9256     0.0000
 23 H      0.9872     1.0000     0.0128     0.9859     0.9859     0.0000
 24 H      0.9655     1.0000     0.0345     0.9888     0.9888     0.0000
 25 C      6.0778     6.0000    -0.0778     4.0976     4.0976    -0.0000
 26 H      0.9653     1.0000     0.0347     0.9950     0.9950    -0.0000
 27 H      0.9668     1.0000     0.0332     0.9785     0.9785    -0.0000
 28 C      6.0260     6.0000    -0.0260     3.9989     3.9989     0.0000
 29 H      0.9756     1.0000     0.0244     0.9885     0.9885     0.0000
 30 H      0.9552     1.0000     0.0448     0.9853     0.9853    -0.0000
 31 H      0.9838     1.0000     0.0162     0.9943     0.9943     0.0000
 32 H      0.9625     1.0000     0.0375     1.0098     1.0098     0.0000
 33 H      0.9944     1.0000     0.0056     1.0022     1.0022     0.0000

  Mayer bond orders larger than 0.100000
B(  0-S ,  1-C ) :   1.1203 B(  0-S ,  4-C ) :   1.1530 B(  1-C ,  2-C ) :   1.6306 
B(  1-C , 32-H ) :   0.9622 B(  2-C ,  3-C ) :   1.2493 B(  2-C ,  6-C ) :   1.0280 
B(  3-C ,  4-C ) :   1.5465 B(  3-C ,  5-H ) :   0.9964 B(  4-C , 20-C ) :   1.0499 
B(  6-C ,  7-H ) :   0.9425 B(  6-C ,  8-H ) :   0.9335 B(  6-C ,  9-C ) :   1.0629 
B(  9-C , 10-H ) :   0.9562 B(  9-C , 11-H ) :   0.9592 B(  9-C , 12-C ) :   1.0792 
B( 12-C , 13-H ) :   0.9735 B( 12-C , 14-H ) :   0.9731 B( 12-C , 15-H ) :   0.9750 
B( 16-S , 17-C ) :   1.1374 B( 16-S , 20-C ) :   1.1257 B( 17-C , 18-C ) :   1.6642 
B( 17-C , 33-H ) :   0.9691 B( 18-C , 19-C ) :   1.2328 B( 18-C , 21-H ) :   0.9852 
B( 19-C , 20-C ) :   1.6247 B( 19-C , 22-C ) :   1.0316 B( 22-C , 23-H ) :   0.9356 
B( 22-C , 24-H ) :   0.9281 B( 22-C , 25-C ) :   1.0524 B( 25-C , 26-H ) :   0.9604 
B( 25-C , 27-H ) :   0.9523 B( 25-C , 28-C ) :   1.0896 B( 28-C , 29-H ) :   0.9717 
B( 28-C , 30-H ) :   0.9759 B( 28-C , 31-H ) :   0.9730 

-------
TIMINGS
-------

Total SCF time: 0 days 0 hours 0 min 30 sec 

Total time                  ....      30.906 sec
Sum of individual times     ....      29.873 sec  ( 96.7%)

Fock matrix formation       ....      27.992 sec  ( 90.6%)
  XC integration            ....       1.889 sec  (  6.7% of F)
    Basis function eval.    ....       0.244 sec  ( 12.9% of XC)
    Density eval.           ....       0.172 sec  (  9.1% of XC)
    XC-Functional eval.     ....       0.194 sec  ( 10.3% of XC)
    XC-Potential eval.      ....       0.202 sec  ( 10.7% of XC)
Diagonalization             ....       0.152 sec  (  0.5%)
Density matrix formation    ....       0.019 sec  (  0.1%)
Population analysis         ....       0.052 sec  (  0.2%)
Initial guess               ....       0.196 sec  (  0.6%)
Orbital Transformation      ....       0.000 sec  (  0.0%)
Orbital Orthonormalization  ....       0.000 sec  (  0.0%)
DIIS solution               ....       0.222 sec  (  0.7%)
SOSCF solution              ....       0.132 sec  (  0.4%)
Grid generation             ....       1.108 sec  (  3.6%)


-------------------------------------------------------------------------------
                          DFT DISPERSION CORRECTION                            
                                                                               
                              DFTD3 V3.1  Rev 1                                
                              USING zero damping                               
-------------------------------------------------------------------------------
The omegaB97X-D3 functional is recognized. Fit by Chai et al.
Active option DFTDOPT                   ...         3   

molecular C6(AA) [au] = 14157.918552 


            DFT-D V3
 parameters
 s6 scaling factor         :     1.0000 
 rs6 scaling factor        :     1.2810 
 s8 scaling factor         :     1.0000 
 rs8 scaling factor        :     1.0940 
 Damping factor alpha6     :    14.0000 
 Damping factor alpha8     :    16.0000 
 ad hoc parameters k1-k3   :    16.0000     1.3333    -4.0000 

 Edisp/kcal,au: -8.994160468183  -0.014333105524 
 E6   /kcal   :  -4.206623178 
 E8   /kcal   :  -4.787537290 
 % E8         :  53.229395973 

-------------------------   ----------------
Dispersion correction           -0.014333106
-------------------------   ----------------


-------------------------   --------------------
FINAL SINGLE POINT ENERGY     -1339.869734733870
-------------------------   --------------------


                            ***************************************
                            *     ORCA property calculations      *
                            ***************************************

                                    ---------------------
                                    Active property flags
                                    ---------------------
   (+) Dipole Moment


------------------------------------------------------------------------------
                       ORCA ELECTRIC PROPERTIES CALCULATION
------------------------------------------------------------------------------

Dipole Moment Calculation                       ... on
Quadrupole Moment Calculation                   ... off
Polarizability Calculation                      ... off
GBWName                                         ... config_6610.gbw
Electron density file                           ... config_6610.scfp
The origin for moment calculation is the CENTER OF MASS  = (-89.300629, 30.802709 144.860079)

-------------
DIPOLE MOMENT
-------------
                                X             Y             Z
Electronic contribution:    -28.07159     -15.63563       1.36741
Nuclear contribution   :     28.66106      15.65435      -1.64657
                        -----------------------------------------
Total Dipole Moment    :      0.58947       0.01872      -0.27916
                        -----------------------------------------
Magnitude (a.u.)       :      0.65250
Magnitude (Debye)      :      1.65853



--------------------
Rotational spectrum 
--------------------
 
Rotational constants in cm-1:     0.019761     0.008833     0.006674 
Rotational constants in MHz :   592.427112   264.811456   200.077360 

 Dipole components along the rotational axes: 
x,y,z [a.u.] :     0.227227    -0.504318    -0.346105 
x,y,z [Debye]:     0.577566    -1.281876    -0.879728 

 

Timings for individual modules:

Sum of individual times         ...       32.223 sec (=   0.537 min)
GTO integral calculation        ...        0.956 sec (=   0.016 min)   3.0 %
SCF iterations                  ...       31.267 sec (=   0.521 min)  97.0 %
                             ****ORCA TERMINATED NORMALLY****
TOTAL RUN TIME: 0 days 0 hours 0 minutes 32 seconds 951 msec
