
                                 *****************
                                 * O   R   C   A *
                                 *****************

           --- An Ab Initio, DFT and Semiempirical electronic structure package ---

                  #######################################################
                  #                        -***-                        #
                  #          Department of theory and spectroscopy      #
                  #               Directorship: Frank Neese             #
                  #        Max Planck Institute fuer Kohlenforschung    #
                  #                Kaiser Wilhelm Platz 1               #
                  #                 D-45470 Muelheim/Ruhr               #
                  #                      Germany                        #
                  #                                                     #
                  #                  All rights reserved                #
                  #                        -***-                        #
                  #######################################################


                         Program Version 4.2.1 -  RELEASE  -


 With contributions from (in alphabetic order):
   Daniel Aravena         : Magnetic Suceptibility
   Michael Atanasov       : Ab Initio Ligand Field Theory (pilot matlab implementation)
   Alexander A. Auer      : GIAO ZORA, VPT2
   Ute Becker             : Parallelization
   Giovanni Bistoni       : ED, misc. LED, open-shell LED, HFLD
   Martin Brehm           : Molecular dynamics
   Dmytro Bykov           : SCF Hessian
   Vijay G. Chilkuri      : MRCI spin determinant printing, contributions to CSF-ICE
   Dipayan Datta          : RHF DLPNO-CCSD density
   Achintya Kumar Dutta   : EOM-CC, STEOM-CC
   Dmitry Ganyushin       : Spin-Orbit,Spin-Spin,Magnetic field MRCI
   Miquel Garcia          : C-PCM Hessian, Gaussian charge scheme
   Yang Guo               : DLPNO-NEVPT2, CIM, IAO-localization
   Andreas Hansen         : Spin unrestricted coupled pair/coupled cluster methods
   Benjamin Helmich-Paris : CASSCF linear response (MC-RPA)
   Lee Huntington         : MR-EOM, pCC
   Robert Izsak           : Overlap fitted RIJCOSX, COSX-SCS-MP3, EOM
   Christian Kollmar      : KDIIS, OOCD, Brueckner-CCSD(T), CCSD density
   Simone Kossmann        : Meta GGA functionals, TD-DFT gradient, OOMP2, MP2 Hessian
   Martin Krupicka        : AUTO-CI
   Lucas Lang             : DCDCAS
   Dagmar Lenk            : GEPOL surface, SMD
   Dimitrios Liakos       : Extrapolation schemes; Compound Job, initial MDCI parallelization
   Dimitrios Manganas     : Further ROCIS development; embedding schemes
   Dimitrios Pantazis     : SARC Basis sets
   Taras Petrenko         : DFT Hessian,TD-DFT gradient, ASA, ECA, R-Raman, ABS, FL, XAS/XES, NRVS
   Peter Pinski           : DLPNO-MP2, DLPNO-MP2 Gradient
   Christoph Reimann      : Effective Core Potentials
   Marius Retegan         : Local ZFS, SOC
   Christoph Riplinger    : Optimizer, TS searches, QM/MM, DLPNO-CCSD(T), (RO)-DLPNO pert. Triples
   Tobias Risthaus        : Range-separated hybrids, TD-DFT gradient, RPA, STAB
   Michael Roemelt        : Original ROCIS implementation
   Masaaki Saitow         : Open-shell DLPNO-CCSD energy and density
   Barbara Sandhoefer     : DKH picture change effects
   Avijit Sen             : IP-ROCIS
   Kantharuban Sivalingam : CASSCF convergence, NEVPT2, FIC-MRCI
   Bernardo de Souza      : ESD, SOC TD-DFT
   Georgi Stoychev        : AutoAux, RI-MP2 NMR
   Willem Van den Heuvel  : Paramagnetic NMR
   Boris Wezisla          : Elementary symmetry handling
   Frank Wennmohs         : Technical directorship


 We gratefully acknowledge several colleagues who have allowed us to
 interface, adapt or use parts of their codes:
   Stefan Grimme, W. Hujo, H. Kruse,             : VdW corrections, initial TS optimization,
                  C. Bannwarth                     DFT functionals, gCP, sTDA/sTD-DF
   Ed Valeev, F. Pavosevic, A. Kumar             : LibInt (2-el integral package), F12 methods
   Garnet Chan, S. Sharma, J. Yang, R. Olivares  : DMRG
   Ulf Ekstrom                                   : XCFun DFT Library
   Mihaly Kallay                                 : mrcc  (arbitrary order and MRCC methods)
   Andreas Klamt, Michael Diedenhofen            : otool_cosmo (COSMO solvation model)
   Jiri Pittner, Ondrej Demel                    : Mk-CCSD
   Frank Weinhold                                : gennbo (NPA and NBO analysis)
   Christopher J. Cramer and Donald G. Truhlar   : smd solvation model
   Lars Goerigk                                  : TD-DFT with DH, B97 family of functionals
   V. Asgeirsson, H. Jonsson                     : NEB implementation
   FAccTs GmbH                                   : IRC, NEB, NEB-TS, Multilevel, MM, QM/MM, CI optimization
   S Lehtola, MJT Oliveira, MAL Marques          : LibXC Library


 Your calculation uses the libint2 library for the computation of 2-el integrals
 For citations please refer to: http://libint.valeyev.net

 Your ORCA version has been built with support for libXC version: 4.2.3
 For citations please refer to: https://tddft.org/programs/libxc/

 This ORCA versions uses:
   CBLAS   interface :  Fast vector & matrix operations
   LAPACKE interface :  Fast linear algebra routines
   SCALAPACK package :  Parallel linear algebra routines


Your calculation utilizes the atom-pairwise dispersion correction
with the zero-damping scheme (D30)
Cite in your paper:
S.Grimme, J.Antony, S.Ehrlich and H.Krieg, J.Chem.Phys., 132, (2010), 154104 
   

XCFun DFT library Copyright 2009-2010 Ulf Ekstrom and contributors.
See http://admol.org/xcfun for more information. This is free soft-
ware; see the source code for copying conditions. There is ABSOLUTELY
NO WARRANTY; not even for MERCHANTABILITY or FITNESS FOR A PARTICULAR
PURPOSE. For details see the documentation. Scientific users of this 
library should cite U. Ekstrom, L. Visscher, R. Bast, A. J. Thorvald-
sen and K. Ruud; J.Chem.Theor.Comp. 2010, DOI: 10.1021/ct100117s
XCFun Version 0.99 
----- Orbital basis set information -----
Your calculation utilizes the basis: def2-SVP
   F. Weigend and R. Ahlrichs, Phys. Chem. Chem. Phys. 7, 3297 (2005).

================================================================================
                                        WARNINGS
                       Please study these warnings very carefully!
================================================================================


INFO   : the flag for use of LIBINT has been found!

================================================================================
                                       INPUT FILE
================================================================================
NAME = config_2913.inp
|  1> ! wB97X-D3 SP def2-SVP
|  2> %pal
|  3> nprocs 16
|  4> end
|  5> 
|  6> * xyz 0 1
|  7> S 	 57.9564 	 -9.3534 	 89.4273 	 
|  8> C 	 57.9342 	 -7.72205 	 89.9783 	 
|  9> C 	 58.3101 	 -6.82836 	 88.9733 	 
| 10> C 	 58.671 	 -7.55043 	 87.7667 	 
| 11> C 	 58.5467 	 -8.94378 	 87.7928 	 
| 12> H 	 58.9726 	 -7.01722 	 86.8682 	 
| 13> C 	 58.2891 	 -5.33331 	 88.995 	 
| 14> H 	 57.5815 	 -5.16568 	 89.7415 	 
| 15> H 	 57.9033 	 -4.95889 	 88.0895 	 
| 16> C 	 59.6401 	 -4.69308 	 89.42 	 
| 17> H 	 59.4941 	 -3.66374 	 89.5357 	 
| 18> H 	 59.8924 	 -5.12676 	 90.3903 	 
| 19> C 	 60.9179 	 -4.87953 	 88.5438 	 
| 20> H 	 61.7464 	 -4.45097 	 89.1803 	 
| 21> H 	 61.1173 	 -5.91907 	 88.2309 	 
| 22> H 	 60.8384 	 -4.39656 	 87.5751 	 
| 23> S 	 56.9736 	 -10.746 	 86.4643 	 
| 24> C 	 57.6279 	 -11.5727 	 85.0513 	 
| 25> C 	 58.9095 	 -11.2426 	 84.8604 	 
| 26> C 	 59.467 	 -10.3206 	 85.8107 	 
| 27> C 	 58.5087 	 -9.8791 	 86.6878 	 
| 28> H 	 59.4701 	 -11.7188 	 84.0853 	 
| 29> C 	 60.9199 	 -9.78372 	 85.8526 	 
| 30> H 	 60.8666 	 -8.71214 	 85.9339 	 
| 31> H 	 61.4777 	 -9.92035 	 84.9063 	 
| 32> C 	 61.8511 	 -10.192 	 87.0057 	 
| 33> H 	 61.4438 	 -9.8374 	 87.9947 	 
| 34> H 	 62.8382 	 -9.62369 	 87.0368 	 
| 35> C 	 62.0305 	 -11.6892 	 87.1244 	 
| 36> H 	 62.4432 	 -12.0986 	 86.2199 	 
| 37> H 	 61.1371 	 -12.1087 	 87.21 	 
| 38> H 	 62.7034 	 -11.9244 	 88.0002 	 
| 39> H 	 57.5082 	 -7.26661 	 90.8577 	 
| 40> H 	 57.2012 	 -12.4381 	 84.5526 	 
| 41> *
| 42> 
| 43>                          ****END OF INPUT****
================================================================================

                       ****************************
                       * Single Point Calculation *
                       ****************************

---------------------------------
CARTESIAN COORDINATES (ANGSTROEM)
---------------------------------
  S     57.956400   -9.353400   89.427300
  C     57.934200   -7.722050   89.978300
  C     58.310100   -6.828360   88.973300
  C     58.671000   -7.550430   87.766700
  C     58.546700   -8.943780   87.792800
  H     58.972600   -7.017220   86.868200
  C     58.289100   -5.333310   88.995000
  H     57.581500   -5.165680   89.741500
  H     57.903300   -4.958890   88.089500
  C     59.640100   -4.693080   89.420000
  H     59.494100   -3.663740   89.535700
  H     59.892400   -5.126760   90.390300
  C     60.917900   -4.879530   88.543800
  H     61.746400   -4.450970   89.180300
  H     61.117300   -5.919070   88.230900
  H     60.838400   -4.396560   87.575100
  S     56.973600  -10.746000   86.464300
  C     57.627900  -11.572700   85.051300
  C     58.909500  -11.242600   84.860400
  C     59.467000  -10.320600   85.810700
  C     58.508700   -9.879100   86.687800
  H     59.470100  -11.718800   84.085300
  C     60.919900   -9.783720   85.852600
  H     60.866600   -8.712140   85.933900
  H     61.477700   -9.920350   84.906300
  C     61.851100  -10.192000   87.005700
  H     61.443800   -9.837400   87.994700
  H     62.838200   -9.623690   87.036800
  C     62.030500  -11.689200   87.124400
  H     62.443200  -12.098600   86.219900
  H     61.137100  -12.108700   87.210000
  H     62.703400  -11.924400   88.000200
  H     57.508200   -7.266610   90.857700
  H     57.201200  -12.438100   84.552600

----------------------------
CARTESIAN COORDINATES (A.U.)
----------------------------
  NO LB      ZA    FRAG     MASS         X           Y           Z
   0 S    16.0000    0    32.060  109.521724  -17.675364  168.993106
   1 C     6.0000    0    12.011  109.479772  -14.592560  170.034345
   2 C     6.0000    0    12.011  110.190120  -12.903730  168.135170
   3 C     6.0000    0    12.011  110.872122  -14.268245  165.855027
   4 C     6.0000    0    12.011  110.637229  -16.901295  165.904349
   5 H     1.0000    0     1.008  111.442063  -13.260624  164.157108
   6 C     6.0000    0    12.011  110.150436  -10.078495  168.176177
   7 H     1.0000    0     1.008  108.813265   -9.761720  169.586858
   8 H     1.0000    0     1.008  109.421379   -9.370944  166.465030
   9 C     6.0000    0    12.011  112.703456   -8.868636  168.979311
  10 H     1.0000    0     1.008  112.427556   -6.923465  169.197952
  11 H     1.0000    0     1.008  113.180234   -9.688172  170.812912
  12 C     6.0000    0    12.011  115.118148   -9.220975  167.323533
  13 H     1.0000    0     1.008  116.683786   -8.411114  168.526344
  14 H     1.0000    0     1.008  115.494959  -11.185421  166.732238
  15 H     1.0000    0     1.008  114.967914   -8.308294  165.492955
  16 S    16.0000    0    32.060  107.664501  -20.306997  163.393847
  17 C     6.0000    0    12.011  108.900949  -21.869234  160.723664
  18 C     6.0000    0    12.011  111.322822  -21.245435  160.362916
  19 C     6.0000    0    12.011  112.376344  -19.503108  162.158722
  20 C     6.0000    0    12.011  110.565419  -18.668793  163.816201
  21 H     1.0000    0     1.008  112.382202  -22.145323  158.898189
  22 C     6.0000    0    12.011  115.121927  -18.488551  162.237902
  23 H     1.0000    0     1.008  115.021205  -16.463559  162.391537
  24 H     1.0000    0     1.008  116.176016  -18.746745  160.449654
  25 C     6.0000    0    12.011  116.881640  -19.260089  164.416945
  26 H     1.0000    0     1.008  116.111955  -18.589992  166.285884
  27 H     1.0000    0     1.008  118.746989  -18.186138  164.475716
  28 C     6.0000    0    12.011  117.220657  -22.089387  164.641256
  29 H     1.0000    0     1.008  118.000547  -22.863041  162.931998
  30 H     1.0000    0     1.008  115.532376  -22.882127  164.803016
  31 H     1.0000    0     1.008  118.492254  -22.533850  166.296278
  32 H     1.0000    0     1.008  108.674748  -13.731903  171.696170
  33 H     1.0000    0     1.008  108.094603  -23.504603  159.781258

--------------------------------
INTERNAL COORDINATES (ANGSTROEM)
--------------------------------
 S      0   0   0     0.000000000000     0.00000000     0.00000000
 C      1   0   0     1.722032712378     0.00000000     0.00000000
 C      2   1   0     1.396426734956   111.87176198     0.00000000
 C      3   2   1     1.451729125870   110.29002704   357.37808387
 C      4   3   2     1.399126842892   117.24149802     1.99015010
 H      4   3   2     1.087463890941   120.78305779   178.77333751
 C      3   2   1     1.495354938635   128.72834737   173.22010743
 H      7   3   2     1.042141941820   100.41337811   337.41687699
 H      7   3   2     1.053072754562   110.37385934   223.55924697
 C      7   3   2     1.554258811427   113.80323485    93.88089908
 H     10   7   3     1.046060861327   108.31620005   187.80083788
 H     10   7   3     1.092344141011   106.26723244   304.72714658
 C     10   7   3     1.560532884146   120.59687751    64.05741438
 H     13  10   7     1.129251156121   103.82341421   188.54369168
 H     13  10   7     1.103770891807   114.81042832   311.92245451
 H     13  10   7     1.085338638813   112.82944665    66.06104799
 S      5   4   3     2.736339304326   134.26054916   114.96331842
 C     17   5   4     1.762983374851   118.98650714    97.41482349
 C     18  17   5     1.337126538515   110.75564955     3.93465848
 C     19  18  17     1.436648996798   115.84509793     0.11303467
 C     20  19  18     1.372066160941   110.99726174   355.36442244
 H     19  18  17     1.068559221569   119.76128624   175.39415849
 C     20  19  18     1.549488352457   127.16550346   178.86504720
 H     23  20  19     1.075980611535   107.49762972   129.97374635
 H     23  20  19     1.106929214946   113.99267413    17.38128420
 C     23  20  19     1.537356695240   119.75034867   247.83916400
 H     26  23  20     1.126834260218   110.84224453   298.14298278
 H     26  23  20     1.139434015685   114.37764309   189.00497972
 C     26  23  20     1.512574589896   113.17715358    57.83132882
 H     29  26  23     1.075197609744   110.87959884    59.36873095
 H     29  26  23     0.990692268063   108.60003738   304.58033277
 H     29  26  23     1.129220567471   109.73735326   181.27217009
 H      2   1   3     1.078075115008   131.78278140   165.94556779
 H     18  17   5     1.086136151686   126.57109204   167.10824464

---------------------------
INTERNAL COORDINATES (A.U.)
---------------------------
 S      0   0   0     0.000000000000     0.00000000     0.00000000
 C      1   0   0     3.254170220048     0.00000000     0.00000000
 C      2   1   0     2.638864095153   111.87176198     0.00000000
 C      3   2   1     2.743370468532   110.29002704   357.37808387
 C      4   3   2     2.643966559683   117.24149802     1.99015010
 H      4   3   2     2.055008934406   120.78305779   178.77333751
 C      3   2   1     2.825811307027   128.72834737   173.22010743
 H      7   3   2     1.969362862712   100.41337811   337.41687699
 H      7   3   2     1.990019105216   110.37385934   223.55924697
 C      7   3   2     2.937123494832   113.80323485    93.88089908
 H     10   7   3     1.976768547322   108.31620005   187.80083788
 H     10   7   3     2.064231270503   106.26723244   304.72714658
 C     10   7   3     2.948979774014   120.59687751    64.05741438
 H     13  10   7     2.133975421482   103.82341421   188.54369168
 H     13  10   7     2.085824700109   114.81042832   311.92245451
 H     13  10   7     2.050992789919   112.82944665    66.06104799
 S      5   4   3     5.170931894661   134.26054916   114.96331842
 C     17   5   4     3.331555757124   118.98650714    97.41482349
 C     18  17   5     2.526802964191   110.75564955     3.93465848
 C     19  18  17     2.714873154520   115.84509793     0.11303467
 C     20  19  18     2.592829281800   110.99726174   355.36442244
 H     19  18  17     2.019284286641   119.76128624   175.39415849
 C     20  19  18     2.928108633845   127.16550346   178.86504720
 H     23  20  19     2.033308681211   107.49762972   129.97374635
 H     23  20  19     2.091793065884   113.99267413    17.38128420
 C     23  20  19     2.905183124154   119.75034867   247.83916400
 H     26  23  20     2.129408150131   110.84224453   298.14298278
 H     26  23  20     2.153218237319   114.37764309   189.00497972
 C     26  23  20     2.858351732032   113.17715358    57.83132882
 H     29  26  23     2.031829022264   110.87959884    59.36873095
 H     29  26  23     1.872137069633   108.60003738   304.58033277
 H     29  26  23     2.133917617312   109.73735326   181.27217009
 H      2   1   3     2.037266719161   131.78278140   165.94556779
 H     18  17   5     2.052499870838   126.57109204   167.10824464

---------------------
BASIS SET INFORMATION
---------------------
There are 3 groups of distinct atoms

 Group   1 Type S   : 10s7p1d contracted to 4s3p1d pattern {5311/511/1}
 Group   2 Type C   : 7s4p1d contracted to 3s2p1d pattern {511/31/1}
 Group   3 Type H   : 4s1p contracted to 2s1p pattern {31/1}

Atom   0S    basis set group =>   1
Atom   1C    basis set group =>   2
Atom   2C    basis set group =>   2
Atom   3C    basis set group =>   2
Atom   4C    basis set group =>   2
Atom   5H    basis set group =>   3
Atom   6C    basis set group =>   2
Atom   7H    basis set group =>   3
Atom   8H    basis set group =>   3
Atom   9C    basis set group =>   2
Atom  10H    basis set group =>   3
Atom  11H    basis set group =>   3
Atom  12C    basis set group =>   2
Atom  13H    basis set group =>   3
Atom  14H    basis set group =>   3
Atom  15H    basis set group =>   3
Atom  16S    basis set group =>   1
Atom  17C    basis set group =>   2
Atom  18C    basis set group =>   2
Atom  19C    basis set group =>   2
Atom  20C    basis set group =>   2
Atom  21H    basis set group =>   3
Atom  22C    basis set group =>   2
Atom  23H    basis set group =>   3
Atom  24H    basis set group =>   3
Atom  25C    basis set group =>   2
Atom  26H    basis set group =>   3
Atom  27H    basis set group =>   3
Atom  28C    basis set group =>   2
Atom  29H    basis set group =>   3
Atom  30H    basis set group =>   3
Atom  31H    basis set group =>   3
Atom  32H    basis set group =>   3
Atom  33H    basis set group =>   3


           ************************************************************
           *        Program running with 16 parallel MPI-processes    *
           *              working on a common directory               *
           ************************************************************
------------------------------------------------------------------------------
                           ORCA GTO INTEGRAL CALCULATION
------------------------------------------------------------------------------

                         BASIS SET STATISTICS AND STARTUP INFO

 # of primitive gaussian shells          ...  294
 # of primitive gaussian functions       ...  534
 # of contracted shells                  ...  154
 # of contracted basis functions         ...  322
 Highest angular momentum                ...    2
 Maximum contraction depth               ...    5
 Integral package used                   ... LIBINT
 Integral threshhold            Thresh   ...  1.000e-10
 Primitive cut-off              TCut     ...  1.000e-11


------------------------------ INTEGRAL EVALUATION ----------------------------


 * One electron integrals 
 Pre-screening matrix                    ... done
 Shell pair data                         ... done (   0.003 sec)



           ************************************************************
           *        Program running with 16 parallel MPI-processes    *
           *              working on a common directory               *
           ************************************************************
-------------------------------------------------------------------------------
                                 ORCA SCF
-------------------------------------------------------------------------------

------------
SCF SETTINGS
------------
Hamiltonian:
 Density Functional     Method          .... DFT(GTOs)
 Exchange Functional    Exchange        .... WB97X-D3
 Correlation Functional Correlation     .... WB97X-D3
 Gradients option       PostSCFGGA      .... off
 Hybrid DFT is turned on
   Fraction HF Exchange ScalHFX         ....  0.195728
   Scaling of DF-GGA-X  ScalDFX         ....  0.000000
   Scaling of DF-GGA-C  ScalDFC         ....  1.000000
   Scaling of DF-LDA-C  ScalLDAC        ....  1.000000
   Perturbative correction              ....  0.000000
   Density functional embedding theory  .... OFF
 Long-range corrected/Screened/Range-Separated Hybrid DFT is turned on
   Amount of maximum screened exact exchange              ....  0.804272
   Range separation parameter mu (erf(mu*r12)/r12)        ....  0.250000


General Settings:
 Integral files         IntName         .... config_2913
 Hartree-Fock type      HFTyp           .... RHF
 Total Charge           Charge          ....    0
 Multiplicity           Mult            ....    1
 Number of Electrons    NEL             ....  134
 Basis Dimension        Dim             ....  322
 Nuclear Repulsion      ENuc            ....   1296.8311540329 Eh

Convergence Acceleration:
 DIIS                   CNVDIIS         .... on
   Start iteration      DIISMaxIt       ....    12
   Startup error        DIISStart       ....  0.200000
   # of expansion vecs  DIISMaxEq       ....     5
   Bias factor          DIISBfac        ....   1.050
   Max. coefficient     DIISMaxC        ....  10.000
 Newton-Raphson         CNVNR           .... off
 SOSCF                  CNVSOSCF        .... on
   Start iteration      SOSCFMaxIt      ....   150
   Startup grad/error   SOSCFStart      ....  0.003300
 Level Shifting         CNVShift        .... on
   Level shift para.    LevelShift      ....    0.2500
   Turn off err/grad.   ShiftErr        ....    0.0010
 Zerner damping         CNVZerner       .... off
 Static damping         CNVDamp         .... on
   Fraction old density DampFac         ....    0.7000
   Max. Damping (<1)    DampMax         ....    0.9800
   Min. Damping (>=0)   DampMin         ....    0.0000
   Turn off err/grad.   DampErr         ....    0.1000
 Fernandez-Rico         CNVRico         .... off

SCF Procedure:
 Maximum # iterations   MaxIter         ....   125
 SCF integral mode      SCFMode         .... Direct
   Integral package                     .... LIBINT
 Reset frequency        DirectResetFreq ....    20
 Integral Threshold     Thresh          ....  1.000e-10 Eh
 Primitive CutOff       TCut            ....  1.000e-11 Eh

Convergence Tolerance:
 Convergence Check Mode ConvCheckMode   .... Total+1el-Energy
 Convergence forced     ConvForced      .... 0
 Energy Change          TolE            ....  1.000e-06 Eh
 1-El. energy change                    ....  1.000e-03 Eh
 Orbital Gradient       TolG            ....  5.000e-05
 Orbital Rotation angle TolX            ....  5.000e-05
 DIIS Error             TolErr          ....  1.000e-06


Diagonalization of the overlap matrix:
Smallest eigenvalue                        ... 6.749e-04
Time for diagonalization                   ...    0.015 sec
Threshold for overlap eigenvalues          ... 1.000e-08
Number of eigenvalues below threshold      ... 0
Time for construction of square roots      ...    0.026 sec
Total time needed                          ...    0.041 sec

-------------------
DFT GRID GENERATION
-------------------

General Integration Accuracy     IntAcc      ...  4.340
Radial Grid Type                 RadialGrid  ... Gauss-Chebyshev
Angular Grid (max. acc.)         AngularGrid ... Lebedev-110
Angular grid pruning method      GridPruning ... 3 (G Style)
Weight generation scheme         WeightScheme... Becke
Basis function cutoff            BFCut       ...    1.0000e-10
Integration weight cutoff        WCut        ...    1.0000e-14
Grids for H and He will be reduced by one unit

# of grid points (after initial pruning)     ...  41088 (   0.0 sec)
# of grid points (after weights+screening)   ...  36898 (   0.0 sec)
nearest neighbour list constructed           ...    0.0 sec
Grid point re-assignment to atoms done       ...    0.0 sec
Grid point division into batches done        ...    0.0 sec
Reduced shell lists constructed in    0.1 sec

Total number of grid points                  ...    36898
Total number of batches                      ...      590
Average number of points per batch           ...       62
Average number of grid points per atom       ...     1085
Average number of shells per batch           ...    79.68 (51.74%)
Average number of basis functions per batch  ...   156.26 (48.53%)
Average number of large shells per batch     ...    51.71 (64.89%)
Average number of large basis fcns per batch ...   104.66 (66.98%)
Maximum spatial batch extension              ...  20.14, 14.76, 16.55 au
Average spatial batch extension              ...   0.24,  0.19,  0.21 au

Time for grid setup =    0.167 sec

------------------------------
INITIAL GUESS: MODEL POTENTIAL
------------------------------
Loading Hartree-Fock densities                     ... done
Calculating cut-offs                               ... done
Setting up the integral package                    ... done
Initializing the effective Hamiltonian             ... done
Starting the Coulomb interaction                   ... done (   0.0 sec)
Reading the grid                                   ... done
Mapping shells                                     ... done
Starting the XC term evaluation                    ... done (   0.0 sec)
  promolecular density results
     # of electrons  =    133.990629553
     EX              =   -126.721929940
     EC              =     -4.616836170
     EX+EC           =   -131.338766110
Transforming the Hamiltonian                       ... done (   0.0 sec)
Diagonalizing the Hamiltonian                      ... done (   0.0 sec)
Back transforming the eigenvectors                 ... done (   0.0 sec)
Now organizing SCF variables                       ... done
                      ------------------
                      INITIAL GUESS DONE (   0.4 sec)
                      ------------------
--------------
SCF ITERATIONS
--------------
ITER       Energy         Delta-E        Max-DP      RMS-DP      [F,P]     Damp
               ***  Starting incremental Fock matrix formation  ***
  0  -1339.4119461934   0.000000000000 0.06989328  0.00154429  0.1800061 0.7000
  1  -1339.5994051490  -0.187458955530 0.04672555  0.00112469  0.1085225 0.7000
                               ***Turning on DIIS***
  2  -1339.6907264328  -0.091321283879 0.08664063  0.00213659  0.0562067 0.0000
  3  -1339.8293715700  -0.138645137111 0.04279197  0.00097291  0.0399049 0.0000
  4  -1339.8585865797  -0.029215009722 0.00740075  0.00019875  0.0077261 0.0000
                      *** Initiating the SOSCF procedure ***
                           *** Shutting down DIIS ***
                      *** Re-Reading the Fockian *** 
                      *** Removing any level shift *** 
ITER      Energy       Delta-E        Grad      Rot      Max-DP    RMS-DP
  5  -1339.85947288  -0.0008863014  0.001604  0.001604  0.003113  0.000103
               *** Restarting incremental Fock matrix formation ***
  6  -1339.85966023  -0.0001873460  0.001265  0.003593  0.002598  0.000067
  7  -1339.85972685  -0.0000666200  0.000745  0.004738  0.003549  0.000068
  8  -1339.85974472  -0.0000178706  0.000365  0.000697  0.000899  0.000022
  9  -1339.85974989  -0.0000051702  0.000168  0.000376  0.000353  0.000009
 10  -1339.85975043  -0.0000005425  0.000055  0.000193  0.000171  0.000004
                  ***Gradient check signals convergence***
              ***Rediagonalizing the Fockian in SOSCF/NRSCF***

               *****************************************************
               *                     SUCCESS                       *
               *           SCF CONVERGED AFTER  11 CYCLES          *
               *****************************************************

Setting up the final grid:

General Integration Accuracy     IntAcc      ...  4.670
Radial Grid Type                 RadialGrid  ... Gauss-Chebyshev
Angular Grid (max. acc.)         AngularGrid ... Lebedev-302
Angular grid pruning method      GridPruning ... 3 (G Style)
Weight generation scheme         WeightScheme... Becke
Basis function cutoff            BFCut       ...    1.0000e-10
Integration weight cutoff        WCut        ...    1.0000e-14
Grids for H and He will be reduced by one unit

# of grid points (after initial pruning)     ... 161752 (   0.0 sec)
# of grid points (after weights+screening)   ... 142391 (   0.2 sec)
nearest neighbour list constructed           ...    0.0 sec
Grid point re-assignment to atoms done       ...    0.0 sec
Grid point division into batches done        ...    0.5 sec
Reduced shell lists constructed in    0.6 sec

Total number of grid points                  ...   142391
Total number of batches                      ...     2242
Average number of points per batch           ...       63
Average number of grid points per atom       ...     4188
Average number of shells per batch           ...    74.34 (48.27%)
Average number of basis functions per batch  ...   145.45 (45.17%)
Average number of large shells per batch     ...    46.70 (62.82%)
Average number of large basis fcns per batch ...    94.65 (65.08%)
Maximum spatial batch extension              ...  14.58, 12.79, 16.26 au
Average spatial batch extension              ...   0.13,  0.13,  0.13 au

Final grid set up in    1.1 sec
Final integration                            ... done (   0.3 sec)
Change in XC energy                          ...     0.007117013
Integrated number of electrons               ...   133.999817785
Previous integrated no of electrons          ...   133.999946976

----------------
TOTAL SCF ENERGY
----------------

Total Energy       :        -1339.85263370 Eh          -36459.24372 eV

Components:
Nuclear Repulsion  :         1296.83115403 Eh           35288.56974 eV
Electronic Energy  :        -2636.68378773 Eh          -71747.81345 eV
One Electron Energy:        -4410.23485475 Eh         -120008.59152 eV
Two Electron Energy:         1773.55106701 Eh           48260.77806 eV

Virial components:
Potential Energy   :        -2671.43873995 Eh          -72693.54378 eV
Kinetic Energy     :         1331.58610625 Eh           36234.30007 eV
Virial Ratio       :            2.00620803


DFT components:
N(Alpha)           :       66.999908892747 electrons
N(Beta)            :       66.999908892747 electrons
N(Total)           :      133.999817785493 electrons
E(XC)              :      -94.271775721007 Eh       
DFET-embed. en.    :        0.000000000000 Eh       

---------------
SCF CONVERGENCE
---------------

  Last Energy change         ...   -2.8445e-07  Tolerance :   1.0000e-06
  Last MAX-Density change    ...    3.0729e-05  Tolerance :   1.0000e-05
  Last RMS-Density change    ...    7.8316e-07  Tolerance :   1.0000e-06
  Last Orbital Gradient      ...    1.1047e-05  Tolerance :   5.0000e-05
  Last Orbital Rotation      ...    3.3718e-05  Tolerance :   5.0000e-05

             **** THE GBW FILE WAS UPDATED (config_2913.gbw) ****
             **** DENSITY FILE WAS UPDATED (config_2913.scfp) ****
             **** ENERGY FILE WAS UPDATED (config_2913.en.tmp) ****
             **** THE GBW FILE WAS UPDATED (config_2913.gbw) ****
             **** DENSITY FILE WAS UPDATED (config_2913.scfp) ****
----------------
ORBITAL ENERGIES
----------------

  NO   OCC          E(Eh)            E(eV) 
   0   2.0000     -88.969009     -2420.9698 
   1   2.0000     -88.964357     -2420.8432 
   2   2.0000     -10.334053      -281.2039 
   3   2.0000     -10.329565      -281.0817 
   4   2.0000     -10.315380      -280.6958 
   5   2.0000     -10.315064      -280.6872 
   6   2.0000     -10.308543      -280.5097 
   7   2.0000     -10.300680      -280.2958 
   8   2.0000     -10.297770      -280.2166 
   9   2.0000     -10.294853      -280.1372 
  10   2.0000     -10.291145      -280.0363 
  11   2.0000     -10.287683      -279.9421 
  12   2.0000     -10.287041      -279.9246 
  13   2.0000     -10.286183      -279.9013 
  14   2.0000     -10.284150      -279.8459 
  15   2.0000     -10.261683      -279.2346 
  16   2.0000      -8.083170      -219.9543 
  17   2.0000      -8.078776      -219.8347 
  18   2.0000      -6.041844      -164.4069 
  19   2.0000      -6.037589      -164.2911 
  20   2.0000      -6.037429      -164.2868 
  21   2.0000      -6.033931      -164.1916 
  22   2.0000      -6.033361      -164.1761 
  23   2.0000      -6.029328      -164.0663 
  24   2.0000      -1.006101       -27.3774 
  25   2.0000      -0.983948       -26.7746 
  26   2.0000      -0.912916       -24.8417 
  27   2.0000      -0.905277       -24.6338 
  28   2.0000      -0.872813       -23.7505 
  29   2.0000      -0.847973       -23.0745 
  30   2.0000      -0.842664       -22.9301 
  31   2.0000      -0.819224       -22.2922 
  32   2.0000      -0.786950       -21.4140 
  33   2.0000      -0.776964       -21.1423 
  34   2.0000      -0.711526       -19.3616 
  35   2.0000      -0.704171       -19.1615 
  36   2.0000      -0.686790       -18.6885 
  37   2.0000      -0.662317       -18.0226 
  38   2.0000      -0.637062       -17.3353 
  39   2.0000      -0.617324       -16.7982 
  40   2.0000      -0.593372       -16.1465 
  41   2.0000      -0.578452       -15.7405 
  42   2.0000      -0.552056       -15.0222 
  43   2.0000      -0.548251       -14.9187 
  44   2.0000      -0.543974       -14.8023 
  45   2.0000      -0.541050       -14.7227 
  46   2.0000      -0.521038       -14.1782 
  47   2.0000      -0.511644       -13.9225 
  48   2.0000      -0.507712       -13.8156 
  49   2.0000      -0.492564       -13.4033 
  50   2.0000      -0.490055       -13.3351 
  51   2.0000      -0.481781       -13.1099 
  52   2.0000      -0.470276       -12.7969 
  53   2.0000      -0.467815       -12.7299 
  54   2.0000      -0.462153       -12.5758 
  55   2.0000      -0.442449       -12.0396 
  56   2.0000      -0.437264       -11.8986 
  57   2.0000      -0.435799       -11.8587 
  58   2.0000      -0.429657       -11.6916 
  59   2.0000      -0.426767       -11.6129 
  60   2.0000      -0.423872       -11.5341 
  61   2.0000      -0.420127       -11.4322 
  62   2.0000      -0.404303       -11.0017 
  63   2.0000      -0.347317        -9.4510 
  64   2.0000      -0.332718        -9.0537 
  65   2.0000      -0.325908        -8.8684 
  66   2.0000      -0.299201        -8.1417 
  67   0.0000       0.026268         0.7148 
  68   0.0000       0.064521         1.7557 
  69   0.0000       0.116096         3.1591 
  70   0.0000       0.120445         3.2775 
  71   0.0000       0.124693         3.3931 
  72   0.0000       0.134886         3.6704 
  73   0.0000       0.147287         4.0079 
  74   0.0000       0.150901         4.1062 
  75   0.0000       0.165860         4.5133 
  76   0.0000       0.172381         4.6907 
  77   0.0000       0.180414         4.9093 
  78   0.0000       0.187063         5.0902 
  79   0.0000       0.194459         5.2915 
  80   0.0000       0.202012         5.4970 
  81   0.0000       0.208696         5.6789 
  82   0.0000       0.213789         5.8175 
  83   0.0000       0.219303         5.9675 
  84   0.0000       0.226232         6.1561 
  85   0.0000       0.230830         6.2812 
  86   0.0000       0.234110         6.3705 
  87   0.0000       0.238977         6.5029 
  88   0.0000       0.244599         6.6559 
  89   0.0000       0.252616         6.8740 
  90   0.0000       0.254220         6.9177 
  91   0.0000       0.257573         7.0089 
  92   0.0000       0.270871         7.3708 
  93   0.0000       0.289858         7.8875 
  94   0.0000       0.296077         8.0567 
  95   0.0000       0.313808         8.5392 
  96   0.0000       0.322559         8.7773 
  97   0.0000       0.346921         9.4402 
  98   0.0000       0.352536         9.5930 
  99   0.0000       0.372627        10.1397 
 100   0.0000       0.394684        10.7399 
 101   0.0000       0.403691        10.9850 
 102   0.0000       0.420241        11.4353 
 103   0.0000       0.421067        11.4578 
 104   0.0000       0.438375        11.9288 
 105   0.0000       0.444864        12.1054 
 106   0.0000       0.462163        12.5761 
 107   0.0000       0.474403        12.9092 
 108   0.0000       0.485421        13.2090 
 109   0.0000       0.493747        13.4355 
 110   0.0000       0.497253        13.5309 
 111   0.0000       0.507351        13.8057 
 112   0.0000       0.516888        14.0652 
 113   0.0000       0.525833        14.3086 
 114   0.0000       0.531182        14.4542 
 115   0.0000       0.541207        14.7270 
 116   0.0000       0.548504        14.9256 
 117   0.0000       0.551030        14.9943 
 118   0.0000       0.562197        15.2982 
 119   0.0000       0.565179        15.3793 
 120   0.0000       0.568462        15.4686 
 121   0.0000       0.592087        16.1115 
 122   0.0000       0.595004        16.1909 
 123   0.0000       0.607112        16.5204 
 124   0.0000       0.608560        16.5598 
 125   0.0000       0.626173        17.0390 
 126   0.0000       0.628853        17.1120 
 127   0.0000       0.645147        17.5553 
 128   0.0000       0.658995        17.9322 
 129   0.0000       0.662699        18.0330 
 130   0.0000       0.672045        18.2873 
 131   0.0000       0.687789        18.7157 
 132   0.0000       0.689842        18.7716 
 133   0.0000       0.698140        18.9974 
 134   0.0000       0.709549        19.3078 
 135   0.0000       0.714160        19.4333 
 136   0.0000       0.718087        19.5401 
 137   0.0000       0.723996        19.7009 
 138   0.0000       0.729763        19.8579 
 139   0.0000       0.736845        20.0506 
 140   0.0000       0.741574        20.1792 
 141   0.0000       0.745607        20.2890 
 142   0.0000       0.749221        20.3873 
 143   0.0000       0.754447        20.5296 
 144   0.0000       0.758368        20.6362 
 145   0.0000       0.767496        20.8846 
 146   0.0000       0.771833        21.0027 
 147   0.0000       0.773081        21.0366 
 148   0.0000       0.785357        21.3706 
 149   0.0000       0.785564        21.3763 
 150   0.0000       0.790809        21.5190 
 151   0.0000       0.793389        21.5892 
 152   0.0000       0.798339        21.7239 
 153   0.0000       0.801681        21.8148 
 154   0.0000       0.804686        21.8966 
 155   0.0000       0.805870        21.9288 
 156   0.0000       0.810596        22.0574 
 157   0.0000       0.813756        22.1434 
 158   0.0000       0.819814        22.3083 
 159   0.0000       0.831681        22.6312 
 160   0.0000       0.834242        22.7009 
 161   0.0000       0.835753        22.7420 
 162   0.0000       0.843299        22.9473 
 163   0.0000       0.850915        23.1546 
 164   0.0000       0.858079        23.3495 
 165   0.0000       0.872347        23.7378 
 166   0.0000       0.874298        23.7908 
 167   0.0000       0.882076        24.0025 
 168   0.0000       0.900045        24.4915 
 169   0.0000       0.906426        24.6651 
 170   0.0000       0.908185        24.7130 
 171   0.0000       0.925399        25.1814 
 172   0.0000       0.936672        25.4881 
 173   0.0000       0.943033        25.6612 
 174   0.0000       0.961522        26.1643 
 175   0.0000       0.970213        26.4008 
 176   0.0000       0.973763        26.4974 
 177   0.0000       0.991506        26.9802 
 178   0.0000       1.008148        27.4331 
 179   0.0000       1.012821        27.5603 
 180   0.0000       1.031350        28.0645 
 181   0.0000       1.052163        28.6308 
 182   0.0000       1.072069        29.1725 
 183   0.0000       1.095843        29.8194 
 184   0.0000       1.109831        30.2000 
 185   0.0000       1.147783        31.2328 
 186   0.0000       1.159715        31.5575 
 187   0.0000       1.172148        31.8958 
 188   0.0000       1.185882        32.2695 
 189   0.0000       1.203142        32.7392 
 190   0.0000       1.220181        33.2028 
 191   0.0000       1.228021        33.4161 
 192   0.0000       1.230676        33.4884 
 193   0.0000       1.252421        34.0801 
 194   0.0000       1.280323        34.8394 
 195   0.0000       1.292019        35.1576 
 196   0.0000       1.324168        36.0324 
 197   0.0000       1.340512        36.4772 
 198   0.0000       1.352803        36.8116 
 199   0.0000       1.374633        37.4057 
 200   0.0000       1.393601        37.9218 
 201   0.0000       1.401010        38.1234 
 202   0.0000       1.416993        38.5583 
 203   0.0000       1.447465        39.3875 
 204   0.0000       1.463776        39.8314 
 205   0.0000       1.478226        40.2246 
 206   0.0000       1.497459        40.7479 
 207   0.0000       1.506144        40.9843 
 208   0.0000       1.524966        41.4964 
 209   0.0000       1.570614        42.7386 
 210   0.0000       1.583944        43.1013 
 211   0.0000       1.601120        43.5687 
 212   0.0000       1.620562        44.0977 
 213   0.0000       1.626407        44.2568 
 214   0.0000       1.648951        44.8702 
 215   0.0000       1.672132        45.5010 
 216   0.0000       1.690283        45.9949 
 217   0.0000       1.718994        46.7762 
 218   0.0000       1.740624        47.3648 
 219   0.0000       1.756892        47.8075 
 220   0.0000       1.766539        48.0700 
 221   0.0000       1.792074        48.7648 
 222   0.0000       1.805799        49.1383 
 223   0.0000       1.812404        49.3180 
 224   0.0000       1.834352        49.9153 
 225   0.0000       1.837506        50.0011 
 226   0.0000       1.842679        50.1418 
 227   0.0000       1.846205        50.2378 
 228   0.0000       1.856624        50.5213 
 229   0.0000       1.860726        50.6329 
 230   0.0000       1.870139        50.8891 
 231   0.0000       1.881028        51.1854 
 232   0.0000       1.883370        51.2491 
 233   0.0000       1.888248        51.3818 
 234   0.0000       1.895121        51.5689 
 235   0.0000       1.903834        51.8060 
 236   0.0000       1.922548        52.3152 
 237   0.0000       1.933567        52.6150 
 238   0.0000       1.939592        52.7790 
 239   0.0000       1.941340        52.8266 
 240   0.0000       1.950382        53.0726 
 241   0.0000       1.962688        53.4074 
 242   0.0000       1.971310        53.6421 
 243   0.0000       1.978585        53.8400 
 244   0.0000       1.982364        53.9429 
 245   0.0000       1.995196        54.2920 
 246   0.0000       2.004322        54.5404 
 247   0.0000       2.014319        54.8124 
 248   0.0000       2.023838        55.0714 
 249   0.0000       2.028479        55.1977 
 250   0.0000       2.032359        55.3033 
 251   0.0000       2.040119        55.5145 
 252   0.0000       2.053171        55.8696 
 253   0.0000       2.077768        56.5389 
 254   0.0000       2.085008        56.7359 
 255   0.0000       2.094134        56.9843 
 256   0.0000       2.111082        57.4455 
 257   0.0000       2.120689        57.7069 
 258   0.0000       2.137005        58.1509 
 259   0.0000       2.159711        58.7687 
 260   0.0000       2.169881        59.0455 
 261   0.0000       2.191764        59.6409 
 262   0.0000       2.200186        59.8701 
 263   0.0000       2.215304        60.2815 
 264   0.0000       2.216172        60.3051 
 265   0.0000       2.250781        61.2469 
 266   0.0000       2.260227        61.5039 
 267   0.0000       2.275013        61.9063 
 268   0.0000       2.290667        62.3322 
 269   0.0000       2.306771        62.7704 
 270   0.0000       2.323992        63.2390 
 271   0.0000       2.348791        63.9139 
 272   0.0000       2.370046        64.4922 
 273   0.0000       2.392517        65.1037 
 274   0.0000       2.397663        65.2437 
 275   0.0000       2.411488        65.6199 
 276   0.0000       2.434475        66.2454 
 277   0.0000       2.451395        66.7059 
 278   0.0000       2.465724        67.0958 
 279   0.0000       2.479665        67.4751 
 280   0.0000       2.488063        67.7036 
 281   0.0000       2.500163        68.0329 
 282   0.0000       2.531391        68.8827 
 283   0.0000       2.540462        69.1295 
 284   0.0000       2.551548        69.4311 
 285   0.0000       2.567931        69.8769 
 286   0.0000       2.586389        70.3792 
 287   0.0000       2.596133        70.6444 
 288   0.0000       2.615064        71.1595 
 289   0.0000       2.621841        71.3439 
 290   0.0000       2.641113        71.8683 
 291   0.0000       2.660726        72.4020 
 292   0.0000       2.682000        72.9809 
 293   0.0000       2.703949        73.5782 
 294   0.0000       2.723282        74.1043 
 295   0.0000       2.748501        74.7905 
 296   0.0000       2.762707        75.1771 
 297   0.0000       2.784082        75.7587 
 298   0.0000       2.789347        75.9020 
 299   0.0000       2.828072        76.9557 
 300   0.0000       2.865362        77.9705 
 301   0.0000       2.886166        78.5366 
 302   0.0000       2.904840        79.0447 
 303   0.0000       2.922517        79.5257 
 304   0.0000       2.982313        81.1529 
 305   0.0000       2.995996        81.5252 
 306   0.0000       3.006310        81.8059 
 307   0.0000       3.018889        82.1481 
 308   0.0000       3.022938        82.2583 
 309   0.0000       3.037458        82.6534 
 310   0.0000       3.081138        83.8420 
 311   0.0000       3.092125        84.1410 
 312   0.0000       3.111832        84.6773 
 313   0.0000       3.130252        85.1785 
 314   0.0000       3.162443        86.0545 
 315   0.0000       3.167696        86.1974 
 316   0.0000       3.206744        87.2599 
 317   0.0000       3.232840        87.9700 
 318   0.0000       3.250687        88.4557 
 319   0.0000       3.285882        89.4134 
 320   0.0000       3.337627        90.8214 
 321   0.0000       3.432726        93.4092 

                    ********************************
                    * MULLIKEN POPULATION ANALYSIS *
                    ********************************

-----------------------
MULLIKEN ATOMIC CHARGES
-----------------------
   0 S :    0.116129
   1 C :   -0.088721
   2 C :   -0.165013
   3 C :    0.043327
   4 C :   -0.157499
   5 H :    0.013147
   6 C :    0.135551
   7 H :   -0.002151
   8 H :    0.017812
   9 C :   -0.051584
  10 H :    0.024139
  11 H :    0.023160
  12 C :   -0.077692
  13 H :    0.052102
  14 H :    0.038713
  15 H :    0.026637
  16 S :    0.098699
  17 C :   -0.075185
  18 C :   -0.032734
  19 C :   -0.024018
  20 C :   -0.167874
  21 H :    0.008219
  22 C :    0.080489
  23 H :    0.019162
  24 H :    0.025618
  25 C :   -0.116763
  26 H :    0.032611
  27 H :    0.033340
  28 C :    0.008268
  29 H :    0.010835
  30 H :    0.007412
  31 H :    0.041894
  32 H :    0.041061
  33 H :    0.060905
Sum of atomic charges:   -0.0000000

--------------------------------
MULLIKEN REDUCED ORBITAL CHARGES
--------------------------------
  0 S s       :     5.842013  s :     5.842013
      pz      :     3.088524  p :     9.933504
      px      :     3.611656
      py      :     3.233324
      dz2     :     0.028863  d :     0.108354
      dxz     :     0.019590
      dyz     :     0.023448
      dx2y2   :     0.021349
      dxy     :     0.015103
  1 C s       :     3.151145  s :     3.151145
      pz      :     0.983008  p :     2.903655
      px      :     1.082540
      py      :     0.838107
      dz2     :     0.006704  d :     0.033922
      dxz     :     0.004273
      dyz     :     0.009819
      dx2y2   :     0.006001
      dxy     :     0.007124
  2 C s       :     3.114877  s :     3.114877
      pz      :     1.003322  p :     3.006453
      px      :     1.003527
      py      :     0.999603
      dz2     :     0.008949  d :     0.043683
      dxz     :     0.005964
      dyz     :     0.014211
      dx2y2   :     0.006526
      dxy     :     0.008033
  3 C s       :     3.181228  s :     3.181228
      pz      :     0.883673  p :     2.742298
      px      :     0.983957
      py      :     0.874667
      dz2     :     0.007510  d :     0.033147
      dxz     :     0.003810
      dyz     :     0.009582
      dx2y2   :     0.005283
      dxy     :     0.006962
  4 C s       :     3.071003  s :     3.071003
      pz      :     0.966116  p :     3.043351
      px      :     1.098516
      py      :     0.978719
      dz2     :     0.012020  d :     0.043146
      dxz     :     0.005899
      dyz     :     0.011539
      dx2y2   :     0.006765
      dxy     :     0.006923
  5 H s       :     0.963552  s :     0.963552
      pz      :     0.011591  p :     0.023301
      px      :     0.005819
      py      :     0.005892
  6 C s       :     2.913055  s :     2.913055
      pz      :     0.989081  p :     2.914534
      px      :     0.998574
      py      :     0.926878
      dz2     :     0.005949  d :     0.036860
      dxz     :     0.009922
      dyz     :     0.004561
      dx2y2   :     0.009667
      dxy     :     0.006761
  7 H s       :     0.975897  s :     0.975897
      pz      :     0.010628  p :     0.026255
      px      :     0.009403
      py      :     0.006224
  8 H s       :     0.957162  s :     0.957162
      pz      :     0.013177  p :     0.025026
      px      :     0.006052
      py      :     0.005797
  9 C s       :     3.026259  s :     3.026259
      pz      :     1.034785  p :     2.989255
      px      :     0.951970
      py      :     1.002500
      dz2     :     0.008051  d :     0.036069
      dxz     :     0.007674
      dyz     :     0.003779
      dx2y2   :     0.011195
      dxy     :     0.005370
 10 H s       :     0.951387  s :     0.951387
      pz      :     0.005300  p :     0.024474
      px      :     0.004551
      py      :     0.014622
 11 H s       :     0.954080  s :     0.954080
      pz      :     0.011963  p :     0.022760
      px      :     0.004474
      py      :     0.006322
 12 C s       :     3.044188  s :     3.044188
      pz      :     0.981600  p :     3.006427
      px      :     0.986060
      py      :     1.038767
      dz2     :     0.005645  d :     0.027077
      dxz     :     0.006320
      dyz     :     0.005737
      dx2y2   :     0.005865
      dxy     :     0.003511
 13 H s       :     0.926407  s :     0.926407
      pz      :     0.007021  p :     0.021491
      px      :     0.008956
      py      :     0.005514
 14 H s       :     0.937866  s :     0.937866
      pz      :     0.005512  p :     0.023421
      px      :     0.004097
      py      :     0.013812
 15 H s       :     0.949691  s :     0.949691
      pz      :     0.011863  p :     0.023671
      px      :     0.004184
      py      :     0.007624
 16 S s       :     5.851531  s :     5.851531
      pz      :     3.282993  p :     9.947822
      px      :     3.309771
      py      :     3.355059
      dz2     :     0.025896  d :     0.101948
      dxz     :     0.019803
      dyz     :     0.015729
      dx2y2   :     0.017481
      dxy     :     0.023039
 17 C s       :     3.132180  s :     3.132180
      pz      :     0.929409  p :     2.906386
      px      :     0.997474
      py      :     0.979504
      dz2     :     0.007026  d :     0.036618
      dxz     :     0.008376
      dyz     :     0.005331
      dx2y2   :     0.007018
      dxy     :     0.008868
 18 C s       :     3.176303  s :     3.176303
      pz      :     0.942213  p :     2.819612
      px      :     0.897741
      py      :     0.979658
      dz2     :     0.005796  d :     0.036819
      dxz     :     0.009674
      dyz     :     0.005300
      dx2y2   :     0.007978
      dxy     :     0.008071
 19 C s       :     3.061853  s :     3.061853
      pz      :     0.977001  p :     2.920058
      px      :     0.961635
      py      :     0.981421
      dz2     :     0.008404  d :     0.042108
      dxz     :     0.010625
      dyz     :     0.005169
      dx2y2   :     0.008023
      dxy     :     0.009887
 20 C s       :     3.067461  s :     3.067461
      pz      :     1.076566  p :     3.055736
      px      :     0.939235
      py      :     1.039935
      dz2     :     0.009144  d :     0.044677
      dxz     :     0.008998
      dyz     :     0.007190
      dx2y2   :     0.007449
      dxy     :     0.011896
 21 H s       :     0.967392  s :     0.967392
      pz      :     0.010367  p :     0.024388
      px      :     0.007114
      py      :     0.006908
 22 C s       :     2.947724  s :     2.947724
      pz      :     1.001335  p :     2.937406
      px      :     0.918394
      py      :     1.017676
      dz2     :     0.008458  d :     0.034381
      dxz     :     0.009019
      dyz     :     0.002079
      dx2y2   :     0.010172
      dxy     :     0.004652
 23 H s       :     0.956393  s :     0.956393
      pz      :     0.005522  p :     0.024445
      px      :     0.004404
      py      :     0.014520
 24 H s       :     0.952223  s :     0.952223
      pz      :     0.011023  p :     0.022159
      px      :     0.005943
      py      :     0.005193
 25 C s       :     3.081754  s :     3.081754
      pz      :     0.996160  p :     2.998007
      px      :     0.998227
      py      :     1.003620
      dz2     :     0.008846  d :     0.037003
      dxz     :     0.006059
      dyz     :     0.006551
      dx2y2   :     0.007009
      dxy     :     0.008537
 26 H s       :     0.945433  s :     0.945433
      pz      :     0.011258  p :     0.021956
      px      :     0.005854
      py      :     0.004844
 27 H s       :     0.946059  s :     0.946059
      pz      :     0.004192  p :     0.020601
      px      :     0.010947
      py      :     0.005462
 28 C s       :     2.957509  s :     2.957509
      pz      :     1.008458  p :     3.003915
      px      :     1.023239
      py      :     0.972218
      dz2     :     0.006070  d :     0.030308
      dxz     :     0.004935
      dyz     :     0.005551
      dx2y2   :     0.006587
      dxy     :     0.007165
 29 H s       :     0.964408  s :     0.964408
      pz      :     0.011633  p :     0.024756
      px      :     0.007313
      py      :     0.005810
 30 H s       :     0.963222  s :     0.963222
      pz      :     0.006800  p :     0.029366
      px      :     0.014901
      py      :     0.007665
 31 H s       :     0.936296  s :     0.936296
      pz      :     0.009877  p :     0.021810
      px      :     0.007865
      py      :     0.004068
 32 H s       :     0.934145  s :     0.934145
      pz      :     0.012150  p :     0.024793
      px      :     0.007279
      py      :     0.005364
 33 H s       :     0.915184  s :     0.915184
      pz      :     0.006255  p :     0.023911
      px      :     0.005783
      py      :     0.011873


                     *******************************
                     * LOEWDIN POPULATION ANALYSIS *
                     *******************************

----------------------
LOEWDIN ATOMIC CHARGES
----------------------
   0 S :    0.408687
   1 C :   -0.210135
   2 C :   -0.062881
   3 C :   -0.055711
   4 C :   -0.195632
   5 H :    0.027192
   6 C :   -0.023537
   7 H :    0.025695
   8 H :    0.025508
   9 C :   -0.030817
  10 H :    0.016956
  11 H :    0.026046
  12 C :   -0.072289
  13 H :    0.038303
  14 H :    0.025592
  15 H :    0.020167
  16 S :    0.386398
  17 C :   -0.179743
  18 C :   -0.069939
  19 C :   -0.053527
  20 C :   -0.184200
  21 H :    0.028661
  22 C :   -0.034084
  23 H :    0.031583
  24 H :    0.031698
  25 C :   -0.048794
  26 H :    0.026264
  27 H :    0.029935
  28 C :   -0.055737
  29 H :    0.019279
  30 H :    0.005678
  31 H :    0.035754
  32 H :    0.031435
  33 H :    0.036196

-------------------------------
LOEWDIN REDUCED ORBITAL CHARGES
-------------------------------
  0 S s       :     5.504457  s :     5.504457
      pz      :     3.100510  p :     9.952551
      px      :     3.578889
      py      :     3.273153
      dz2     :     0.037917  d :     0.134305
      dxz     :     0.024449
      dyz     :     0.029138
      dx2y2   :     0.026295
      dxy     :     0.016505
  1 C s       :     2.926410  s :     2.926410
      pz      :     1.088777  p :     3.202630
      px      :     1.096376
      py      :     1.017477
      dz2     :     0.016260  d :     0.081096
      dxz     :     0.008715
      dyz     :     0.026397
      dx2y2   :     0.014214
      dxy     :     0.015510
  2 C s       :     2.867669  s :     2.867669
      pz      :     1.052508  p :     3.088352
      px      :     0.985405
      py      :     1.050440
      dz2     :     0.023099  d :     0.106860
      dxz     :     0.013023
      dyz     :     0.038558
      dx2y2   :     0.015660
      dxy     :     0.016519
  3 C s       :     2.878203  s :     2.878203
      pz      :     1.041056  p :     3.089977
      px      :     1.006933
      py      :     1.041988
      dz2     :     0.020396  d :     0.087531
      dxz     :     0.007970
      dyz     :     0.028575
      dx2y2   :     0.015113
      dxy     :     0.015477
  4 C s       :     2.914953  s :     2.914953
      pz      :     1.004606  p :     3.178398
      px      :     1.084670
      py      :     1.089122
      dz2     :     0.028735  d :     0.102281
      dxz     :     0.012674
      dyz     :     0.029185
      dx2y2   :     0.017656
      dxy     :     0.014030
  5 H s       :     0.903459  s :     0.903459
      pz      :     0.033862  p :     0.069349
      px      :     0.017296
      py      :     0.018191
  6 C s       :     2.803776  s :     2.803776
      pz      :     1.071823  p :     3.126101
      px      :     1.040688
      py      :     1.013590
      dz2     :     0.016620  d :     0.093660
      dxz     :     0.023960
      dyz     :     0.011801
      dx2y2   :     0.025456
      dxy     :     0.015823
  7 H s       :     0.896497  s :     0.896497
      pz      :     0.029760  p :     0.077808
      px      :     0.028948
      py      :     0.019101
  8 H s       :     0.900837  s :     0.900837
      pz      :     0.035756  p :     0.073655
      px      :     0.019541
      py      :     0.018358
  9 C s       :     2.830117  s :     2.830117
      pz      :     1.051903  p :     3.113659
      px      :     1.001643
      py      :     1.060114
      dz2     :     0.018619  d :     0.087041
      dxz     :     0.018825
      dyz     :     0.009300
      dx2y2   :     0.027353
      dxy     :     0.012943
 10 H s       :     0.907474  s :     0.907474
      pz      :     0.016802  p :     0.075570
      px      :     0.016374
      py      :     0.042395
 11 H s       :     0.907495  s :     0.907495
      pz      :     0.034803  p :     0.066460
      px      :     0.014650
      py      :     0.017006
 12 C s       :     2.848481  s :     2.848481
      pz      :     1.043002  p :     3.156233
      px      :     1.033073
      py      :     1.080158
      dz2     :     0.013132  d :     0.067575
      dxz     :     0.017255
      dyz     :     0.014034
      dx2y2   :     0.015469
      dxy     :     0.007685
 13 H s       :     0.901605  s :     0.901605
      pz      :     0.019176  p :     0.060092
      px      :     0.026236
      py      :     0.014679
 14 H s       :     0.908542  s :     0.908542
      pz      :     0.014997  p :     0.065866
      px      :     0.013057
      py      :     0.037812
 15 H s       :     0.911667  s :     0.911667
      pz      :     0.034882  p :     0.068166
      px      :     0.013549
      py      :     0.019735
 16 S s       :     5.526389  s :     5.526389
      pz      :     3.282639  p :     9.962559
      px      :     3.339285
      py      :     3.340635
      dz2     :     0.031895  d :     0.124653
      dxz     :     0.023304
      dyz     :     0.020295
      dx2y2   :     0.020349
      dxy     :     0.028810
 17 C s       :     2.924643  s :     2.924643
      pz      :     1.018287  p :     3.169487
      px      :     1.098271
      py      :     1.052928
      dz2     :     0.016354  d :     0.085614
      dxz     :     0.019164
      dyz     :     0.011254
      dx2y2   :     0.018025
      dxy     :     0.020817
 18 C s       :     2.856963  s :     2.856963
      pz      :     1.027401  p :     3.116004
      px      :     1.070616
      py      :     1.017987
      dz2     :     0.014099  d :     0.096972
      dxz     :     0.026699
      dyz     :     0.013193
      dx2y2   :     0.022041
      dxy     :     0.020940
 19 C s       :     2.864096  s :     2.864096
      pz      :     1.036868  p :     3.084236
      px      :     1.037617
      py      :     1.009750
      dz2     :     0.019778  d :     0.105195
      dxz     :     0.028374
      dyz     :     0.013849
      dx2y2   :     0.020187
      dxy     :     0.023008
 20 C s       :     2.901834  s :     2.901834
      pz      :     1.080878  p :     3.174492
      px      :     1.028960
      py      :     1.064655
      dz2     :     0.021783  d :     0.107873
      dxz     :     0.022955
      dyz     :     0.018102
      dx2y2   :     0.018193
      dxy     :     0.026840
 21 H s       :     0.899469  s :     0.899469
      pz      :     0.030154  p :     0.071870
      px      :     0.020603
      py      :     0.021114
 22 C s       :     2.829577  s :     2.829577
      pz      :     1.052720  p :     3.119092
      px      :     0.999658
      py      :     1.066715
      dz2     :     0.020684  d :     0.085416
      dxz     :     0.023148
      dyz     :     0.004903
      dx2y2   :     0.025103
      dxy     :     0.011578
 23 H s       :     0.896614  s :     0.896614
      pz      :     0.016003  p :     0.071803
      px      :     0.014025
      py      :     0.041776
 24 H s       :     0.903466  s :     0.903466
      pz      :     0.032357  p :     0.064836
      px      :     0.018439
      py      :     0.014040
 25 C s       :     2.847296  s :     2.847296
      pz      :     1.037660  p :     3.113377
      px      :     1.042987
      py      :     1.032730
      dz2     :     0.021180  d :     0.088121
      dxz     :     0.015658
      dyz     :     0.014141
      dx2y2   :     0.017849
      dxy     :     0.019293
 26 H s       :     0.911210  s :     0.911210
      pz      :     0.032228  p :     0.062526
      px      :     0.015561
      py      :     0.014737
 27 H s       :     0.910574  s :     0.910574
      pz      :     0.011625  p :     0.059491
      px      :     0.030779
      py      :     0.017087
 28 C s       :     2.806832  s :     2.806832
      pz      :     1.056833  p :     3.170793
      px      :     1.082058
      py      :     1.031902
      dz2     :     0.015715  d :     0.078112
      dxz     :     0.014377
      dyz     :     0.012552
      dx2y2   :     0.018877
      dxy     :     0.016591
 29 H s       :     0.912254  s :     0.912254
      pz      :     0.032122  p :     0.068467
      px      :     0.017900
      py      :     0.018445
 30 H s       :     0.907089  s :     0.907089
      pz      :     0.019886  p :     0.087233
      px      :     0.041668
      py      :     0.025679
 31 H s       :     0.905554  s :     0.905554
      pz      :     0.026430  p :     0.058692
      px      :     0.019777
      py      :     0.012485
 32 H s       :     0.891541  s :     0.891541
      pz      :     0.035657  p :     0.077024
      px      :     0.022400
      py      :     0.018967
 33 H s       :     0.890105  s :     0.890105
      pz      :     0.020907  p :     0.073698
      px      :     0.017128
      py      :     0.035663


                      *****************************
                      * MAYER POPULATION ANALYSIS *
                      *****************************

  NA   - Mulliken gross atomic population
  ZA   - Total nuclear charge
  QA   - Mulliken gross atomic charge
  VA   - Mayer's total valence
  BVA  - Mayer's bonded valence
  FA   - Mayer's free valence

  ATOM       NA         ZA         QA         VA         BVA        FA
  0 S     15.8839    16.0000     0.1161     2.4826     2.4826     0.0000
  1 C      6.0887     6.0000    -0.0887     3.8393     3.8393     0.0000
  2 C      6.1650     6.0000    -0.1650     4.0620     4.0620     0.0000
  3 C      5.9567     6.0000     0.0433     3.9137     3.9137    -0.0000
  4 C      6.1575     6.0000    -0.1575     3.8991     3.8991    -0.0000
  5 H      0.9869     1.0000     0.0131     1.0011     1.0011     0.0000
  6 C      5.8644     6.0000     0.1356     3.9541     3.9541    -0.0000
  7 H      1.0022     1.0000    -0.0022     0.9954     0.9954    -0.0000
  8 H      0.9822     1.0000     0.0178     0.9920     0.9920    -0.0000
  9 C      6.0516     6.0000    -0.0516     4.0904     4.0904    -0.0000
 10 H      0.9759     1.0000     0.0241     0.9777     0.9777     0.0000
 11 H      0.9768     1.0000     0.0232     0.9819     0.9819    -0.0000
 12 C      6.0777     6.0000    -0.0777     3.9928     3.9928     0.0000
 13 H      0.9479     1.0000     0.0521     0.9848     0.9848    -0.0000
 14 H      0.9613     1.0000     0.0387     0.9957     0.9957    -0.0000
 15 H      0.9734     1.0000     0.0266     0.9847     0.9847     0.0000
 16 S     15.9013    16.0000     0.0987     2.4506     2.4506    -0.0000
 17 C      6.0752     6.0000    -0.0752     3.8345     3.8345     0.0000
 18 C      6.0327     6.0000    -0.0327     3.9823     3.9823     0.0000
 19 C      6.0240     6.0000    -0.0240     4.0162     4.0162     0.0000
 20 C      6.1679     6.0000    -0.1679     3.9259     3.9259     0.0000
 21 H      0.9918     1.0000     0.0082     0.9966     0.9966     0.0000
 22 C      5.9195     6.0000     0.0805     3.9657     3.9657     0.0000
 23 H      0.9808     1.0000     0.0192     0.9928     0.9928     0.0000
 24 H      0.9744     1.0000     0.0256     0.9874     0.9874     0.0000
 25 C      6.1168     6.0000    -0.1168     4.0942     4.0942    -0.0000
 26 H      0.9674     1.0000     0.0326     0.9783     0.9783    -0.0000
 27 H      0.9667     1.0000     0.0333     0.9753     0.9753    -0.0000
 28 C      5.9917     6.0000     0.0083     3.9798     3.9798    -0.0000
 29 H      0.9892     1.0000     0.0108     0.9923     0.9923     0.0000
 30 H      0.9926     1.0000     0.0074     1.0036     1.0036     0.0000
 31 H      0.9581     1.0000     0.0419     0.9861     0.9861    -0.0000
 32 H      0.9589     1.0000     0.0411     1.0103     1.0103     0.0000
 33 H      0.9391     1.0000     0.0609     0.9954     0.9954     0.0000

  Mayer bond orders larger than 0.100000
B(  0-S ,  1-C ) :   1.1485 B(  0-S ,  4-C ) :   1.1307 B(  1-C ,  2-C ) :   1.6081 
B(  1-C , 32-H ) :   0.9568 B(  2-C ,  3-C ) :   1.2614 B(  2-C ,  6-C ) :   1.0204 
B(  3-C ,  4-C ) :   1.5623 B(  3-C ,  5-H ) :   0.9854 B(  4-C , 20-C ) :   1.0530 
B(  6-C ,  7-H ) :   0.9246 B(  6-C ,  8-H ) :   0.9414 B(  6-C ,  9-C ) :   1.0732 
B(  9-C , 10-H ) :   0.9572 B(  9-C , 11-H ) :   0.9549 B(  9-C , 12-C ) :   1.0773 
B( 12-C , 13-H ) :   0.9737 B( 12-C , 14-H ) :   0.9730 B( 12-C , 15-H ) :   0.9754 
B( 16-S , 17-C ) :   1.1275 B( 16-S , 20-C ) :   1.1298 B( 17-C , 18-C ) :   1.6555 
B( 17-C , 33-H ) :   0.9613 B( 18-C , 19-C ) :   1.2189 B( 18-C , 21-H ) :   0.9910 
B( 19-C , 20-C ) :   1.6188 B( 19-C , 22-C ) :   1.0281 B( 22-C , 23-H ) :   0.9293 
B( 22-C , 24-H ) :   0.9417 B( 22-C , 25-C ) :   1.0752 B( 25-C , 26-H ) :   0.9518 
B( 25-C , 27-H ) :   0.9538 B( 25-C , 28-C ) :   1.0746 B( 28-C , 29-H ) :   0.9731 
B( 28-C , 30-H ) :   0.9727 B( 28-C , 31-H ) :   0.9724 

-------
TIMINGS
-------

Total SCF time: 0 days 0 hours 0 min 29 sec 

Total time                  ....      29.413 sec
Sum of individual times     ....      28.331 sec  ( 96.3%)

Fock matrix formation       ....      26.353 sec  ( 89.6%)
  XC integration            ....       1.861 sec  (  7.1% of F)
    Basis function eval.    ....       0.233 sec  ( 12.5% of XC)
    Density eval.           ....       0.169 sec  (  9.1% of XC)
    XC-Functional eval.     ....       0.188 sec  ( 10.1% of XC)
    XC-Potential eval.      ....       0.199 sec  ( 10.7% of XC)
Diagonalization             ....       0.135 sec  (  0.5%)
Density matrix formation    ....       0.019 sec  (  0.1%)
Population analysis         ....       0.055 sec  (  0.2%)
Initial guess               ....       0.194 sec  (  0.7%)
Orbital Transformation      ....       0.000 sec  (  0.0%)
Orbital Orthonormalization  ....       0.000 sec  (  0.0%)
DIIS solution               ....       0.165 sec  (  0.6%)
SOSCF solution              ....       0.134 sec  (  0.5%)
Grid generation             ....       1.275 sec  (  4.3%)


-------------------------------------------------------------------------------
                          DFT DISPERSION CORRECTION                            
                                                                               
                              DFTD3 V3.1  Rev 1                                
                              USING zero damping                               
-------------------------------------------------------------------------------
The omegaB97X-D3 functional is recognized. Fit by Chai et al.
Active option DFTDOPT                   ...         3   

molecular C6(AA) [au] = 14191.233018 


            DFT-D V3
 parameters
 s6 scaling factor         :     1.0000 
 rs6 scaling factor        :     1.2810 
 s8 scaling factor         :     1.0000 
 rs8 scaling factor        :     1.0940 
 Damping factor alpha6     :    14.0000 
 Damping factor alpha8     :    16.0000 
 ad hoc parameters k1-k3   :    16.0000     1.3333    -4.0000 

 Edisp/kcal,au: -9.466580159730  -0.015085954143 
 E6   /kcal   :  -4.442788373 
 E8   /kcal   :  -5.023791787 
 % E8         :  53.068708044 

-------------------------   ----------------
Dispersion correction           -0.015085954
-------------------------   ----------------


-------------------------   --------------------
FINAL SINGLE POINT ENERGY     -1339.867719655821
-------------------------   --------------------


                            ***************************************
                            *     ORCA property calculations      *
                            ***************************************

                                    ---------------------
                                    Active property flags
                                    ---------------------
   (+) Dipole Moment


------------------------------------------------------------------------------
                       ORCA ELECTRIC PROPERTIES CALCULATION
------------------------------------------------------------------------------

Dipole Moment Calculation                       ... on
Quadrupole Moment Calculation                   ... off
Polarizability Calculation                      ... off
GBWName                                         ... config_2913.gbw
Electron density file                           ... config_2913.scfp
The origin for moment calculation is the CENTER OF MASS  = (111.433009, -16.909703 165.474388)

-------------
DIPOLE MOMENT
-------------
                                X             Y             Z
Electronic contribution:    -21.58807     -13.44095      -0.36649
Nuclear contribution   :     21.86673      13.87415       0.19746
                        -----------------------------------------
Total Dipole Moment    :      0.27866       0.43320      -0.16903
                        -----------------------------------------
Magnitude (a.u.)       :      0.54211
Magnitude (Debye)      :      1.37793



--------------------
Rotational spectrum 
--------------------
 
Rotational constants in cm-1:     0.019536     0.008974     0.007424 
Rotational constants in MHz :   585.679329   269.043850   222.570415 

 Dipole components along the rotational axes: 
x,y,z [a.u.] :    -0.284944     0.343217    -0.308043 
x,y,z [Debye]:    -0.724271     0.872389    -0.782982 

 

Timings for individual modules:

Sum of individual times         ...       30.441 sec (=   0.507 min)
GTO integral calculation        ...        0.701 sec (=   0.012 min)   2.3 %
SCF iterations                  ...       29.740 sec (=   0.496 min)  97.7 %
                             ****ORCA TERMINATED NORMALLY****
TOTAL RUN TIME: 0 days 0 hours 0 minutes 31 seconds 112 msec
