
                                 *****************
                                 * O   R   C   A *
                                 *****************

           --- An Ab Initio, DFT and Semiempirical electronic structure package ---

                  #######################################################
                  #                        -***-                        #
                  #          Department of theory and spectroscopy      #
                  #               Directorship: Frank Neese             #
                  #        Max Planck Institute fuer Kohlenforschung    #
                  #                Kaiser Wilhelm Platz 1               #
                  #                 D-45470 Muelheim/Ruhr               #
                  #                      Germany                        #
                  #                                                     #
                  #                  All rights reserved                #
                  #                        -***-                        #
                  #######################################################


                         Program Version 4.2.1 -  RELEASE  -


 With contributions from (in alphabetic order):
   Daniel Aravena         : Magnetic Suceptibility
   Michael Atanasov       : Ab Initio Ligand Field Theory (pilot matlab implementation)
   Alexander A. Auer      : GIAO ZORA, VPT2
   Ute Becker             : Parallelization
   Giovanni Bistoni       : ED, misc. LED, open-shell LED, HFLD
   Martin Brehm           : Molecular dynamics
   Dmytro Bykov           : SCF Hessian
   Vijay G. Chilkuri      : MRCI spin determinant printing, contributions to CSF-ICE
   Dipayan Datta          : RHF DLPNO-CCSD density
   Achintya Kumar Dutta   : EOM-CC, STEOM-CC
   Dmitry Ganyushin       : Spin-Orbit,Spin-Spin,Magnetic field MRCI
   Miquel Garcia          : C-PCM Hessian, Gaussian charge scheme
   Yang Guo               : DLPNO-NEVPT2, CIM, IAO-localization
   Andreas Hansen         : Spin unrestricted coupled pair/coupled cluster methods
   Benjamin Helmich-Paris : CASSCF linear response (MC-RPA)
   Lee Huntington         : MR-EOM, pCC
   Robert Izsak           : Overlap fitted RIJCOSX, COSX-SCS-MP3, EOM
   Christian Kollmar      : KDIIS, OOCD, Brueckner-CCSD(T), CCSD density
   Simone Kossmann        : Meta GGA functionals, TD-DFT gradient, OOMP2, MP2 Hessian
   Martin Krupicka        : AUTO-CI
   Lucas Lang             : DCDCAS
   Dagmar Lenk            : GEPOL surface, SMD
   Dimitrios Liakos       : Extrapolation schemes; Compound Job, initial MDCI parallelization
   Dimitrios Manganas     : Further ROCIS development; embedding schemes
   Dimitrios Pantazis     : SARC Basis sets
   Taras Petrenko         : DFT Hessian,TD-DFT gradient, ASA, ECA, R-Raman, ABS, FL, XAS/XES, NRVS
   Peter Pinski           : DLPNO-MP2, DLPNO-MP2 Gradient
   Christoph Reimann      : Effective Core Potentials
   Marius Retegan         : Local ZFS, SOC
   Christoph Riplinger    : Optimizer, TS searches, QM/MM, DLPNO-CCSD(T), (RO)-DLPNO pert. Triples
   Tobias Risthaus        : Range-separated hybrids, TD-DFT gradient, RPA, STAB
   Michael Roemelt        : Original ROCIS implementation
   Masaaki Saitow         : Open-shell DLPNO-CCSD energy and density
   Barbara Sandhoefer     : DKH picture change effects
   Avijit Sen             : IP-ROCIS
   Kantharuban Sivalingam : CASSCF convergence, NEVPT2, FIC-MRCI
   Bernardo de Souza      : ESD, SOC TD-DFT
   Georgi Stoychev        : AutoAux, RI-MP2 NMR
   Willem Van den Heuvel  : Paramagnetic NMR
   Boris Wezisla          : Elementary symmetry handling
   Frank Wennmohs         : Technical directorship


 We gratefully acknowledge several colleagues who have allowed us to
 interface, adapt or use parts of their codes:
   Stefan Grimme, W. Hujo, H. Kruse,             : VdW corrections, initial TS optimization,
                  C. Bannwarth                     DFT functionals, gCP, sTDA/sTD-DF
   Ed Valeev, F. Pavosevic, A. Kumar             : LibInt (2-el integral package), F12 methods
   Garnet Chan, S. Sharma, J. Yang, R. Olivares  : DMRG
   Ulf Ekstrom                                   : XCFun DFT Library
   Mihaly Kallay                                 : mrcc  (arbitrary order and MRCC methods)
   Andreas Klamt, Michael Diedenhofen            : otool_cosmo (COSMO solvation model)
   Jiri Pittner, Ondrej Demel                    : Mk-CCSD
   Frank Weinhold                                : gennbo (NPA and NBO analysis)
   Christopher J. Cramer and Donald G. Truhlar   : smd solvation model
   Lars Goerigk                                  : TD-DFT with DH, B97 family of functionals
   V. Asgeirsson, H. Jonsson                     : NEB implementation
   FAccTs GmbH                                   : IRC, NEB, NEB-TS, Multilevel, MM, QM/MM, CI optimization
   S Lehtola, MJT Oliveira, MAL Marques          : LibXC Library


 Your calculation uses the libint2 library for the computation of 2-el integrals
 For citations please refer to: http://libint.valeyev.net

 Your ORCA version has been built with support for libXC version: 4.2.3
 For citations please refer to: https://tddft.org/programs/libxc/

 This ORCA versions uses:
   CBLAS   interface :  Fast vector & matrix operations
   LAPACKE interface :  Fast linear algebra routines
   SCALAPACK package :  Parallel linear algebra routines


Your calculation utilizes the atom-pairwise dispersion correction
with the zero-damping scheme (D30)
Cite in your paper:
S.Grimme, J.Antony, S.Ehrlich and H.Krieg, J.Chem.Phys., 132, (2010), 154104 
   

XCFun DFT library Copyright 2009-2010 Ulf Ekstrom and contributors.
See http://admol.org/xcfun for more information. This is free soft-
ware; see the source code for copying conditions. There is ABSOLUTELY
NO WARRANTY; not even for MERCHANTABILITY or FITNESS FOR A PARTICULAR
PURPOSE. For details see the documentation. Scientific users of this 
library should cite U. Ekstrom, L. Visscher, R. Bast, A. J. Thorvald-
sen and K. Ruud; J.Chem.Theor.Comp. 2010, DOI: 10.1021/ct100117s
XCFun Version 0.99 
----- Orbital basis set information -----
Your calculation utilizes the basis: def2-SVP
   F. Weigend and R. Ahlrichs, Phys. Chem. Chem. Phys. 7, 3297 (2005).

================================================================================
                                        WARNINGS
                       Please study these warnings very carefully!
================================================================================


INFO   : the flag for use of LIBINT has been found!

================================================================================
                                       INPUT FILE
================================================================================
NAME = config_6019.inp
|  1> ! wB97X-D3 SP def2-SVP
|  2> %pal
|  3> nprocs 16
|  4> end
|  5> 
|  6> * xyz 0 1
|  7> S 	 -23.5414 	 -4.86169 	 96.7058 	 
|  8> C 	 -23.6063 	 -6.13999 	 97.7836 	 
|  9> C 	 -23.5878 	 -5.81667 	 99.1662 	 
| 10> C 	 -23.4423 	 -4.36555 	 99.2163 	 
| 11> C 	 -23.585 	 -3.77884 	 97.9803 	 
| 12> H 	 -23.4102 	 -3.82494 	 100.135 	 
| 13> C 	 -23.6433 	 -6.82394 	 100.307 	 
| 14> H 	 -23.016 	 -6.72064 	 101.096 	 
| 15> H 	 -23.3756 	 -7.74663 	 99.9087 	 
| 16> C 	 -25.0441 	 -7.02079 	 100.911 	 
| 17> H 	 -25.8589 	 -7.05801 	 100.118 	 
| 18> H 	 -25.1106 	 -8.00743 	 101.461 	 
| 19> C 	 -25.4868 	 -5.94453 	 101.953 	 
| 20> H 	 -24.7887 	 -6.1209 	 102.757 	 
| 21> H 	 -25.3331 	 -4.99707 	 101.574 	 
| 22> H 	 -26.5736 	 -6.1444 	 102.251 	 
| 23> S 	 -21.9391 	 -1.5545 	 97.6766 	 
| 24> C 	 -22.5838 	 0.040975 	 97.8973 	 
| 25> C 	 -23.9354 	 -0.0609327 	 98.0262 	 
| 26> C 	 -24.4841 	 -1.33883 	 97.917 	 
| 27> C 	 -23.5224 	 -2.30432 	 97.882 	 
| 28> H 	 -24.4635 	 0.803531 	 98.268 	 
| 29> C 	 -25.9628 	 -1.51696 	 98.0152 	 
| 30> H 	 -26.1583 	 -2.34255 	 97.3061 	 
| 31> H 	 -26.4841 	 -0.61862 	 97.5962 	 
| 32> C 	 -26.5895 	 -1.99223 	 99.3398 	 
| 33> H 	 -26.5355 	 -1.10717 	 100.012 	 
| 34> H 	 -26.0467 	 -2.86905 	 99.7996 	 
| 35> C 	 -28.0467 	 -2.25056 	 99.1108 	 
| 36> H 	 -28.3608 	 -1.61425 	 98.3033 	 
| 37> H 	 -28.4652 	 -1.92214 	 100.006 	 
| 38> H 	 -28.2976 	 -3.2995 	 98.8746 	 
| 39> H 	 -23.9047 	 -7.1384 	 97.4447 	 
| 40> H 	 -21.9998 	 0.946014 	 97.821 	 
| 41> *
| 42> 
| 43>                          ****END OF INPUT****
================================================================================

                       ****************************
                       * Single Point Calculation *
                       ****************************

---------------------------------
CARTESIAN COORDINATES (ANGSTROEM)
---------------------------------
  S    -23.541400   -4.861690   96.705800
  C    -23.606300   -6.139990   97.783600
  C    -23.587800   -5.816670   99.166200
  C    -23.442300   -4.365550   99.216300
  C    -23.585000   -3.778840   97.980300
  H    -23.410200   -3.824940  100.135000
  C    -23.643300   -6.823940  100.307000
  H    -23.016000   -6.720640  101.096000
  H    -23.375600   -7.746630   99.908700
  C    -25.044100   -7.020790  100.911000
  H    -25.858900   -7.058010  100.118000
  H    -25.110600   -8.007430  101.461000
  C    -25.486800   -5.944530  101.953000
  H    -24.788700   -6.120900  102.757000
  H    -25.333100   -4.997070  101.574000
  H    -26.573600   -6.144400  102.251000
  S    -21.939100   -1.554500   97.676600
  C    -22.583800    0.040975   97.897300
  C    -23.935400   -0.060933   98.026200
  C    -24.484100   -1.338830   97.917000
  C    -23.522400   -2.304320   97.882000
  H    -24.463500    0.803531   98.268000
  C    -25.962800   -1.516960   98.015200
  H    -26.158300   -2.342550   97.306100
  H    -26.484100   -0.618620   97.596200
  C    -26.589500   -1.992230   99.339800
  H    -26.535500   -1.107170  100.012000
  H    -26.046700   -2.869050   99.799600
  C    -28.046700   -2.250560   99.110800
  H    -28.360800   -1.614250   98.303300
  H    -28.465200   -1.922140  100.006000
  H    -28.297600   -3.299500   98.874600
  H    -23.904700   -7.138400   97.444700
  H    -21.999800    0.946014   97.821000

----------------------------
CARTESIAN COORDINATES (A.U.)
----------------------------
  NO LB      ZA    FRAG     MASS         X           Y           Z
   0 S    16.0000    0    32.060  -44.486799   -9.187263  182.747478
   1 C     6.0000    0    12.011  -44.609442  -11.602900  184.784224
   2 C     6.0000    0    12.011  -44.574482  -10.991913  187.396960
   3 C     6.0000    0    12.011  -44.299527   -8.249694  187.491635
   4 C     6.0000    0    12.011  -44.569191   -7.140973  185.155934
   5 H     1.0000    0     1.008  -44.238867   -7.228089  189.227726
   6 C     6.0000    0    12.011  -44.679362  -12.895378  189.552759
   7 H     1.0000    0     1.008  -43.493937  -12.700169  191.043753
   8 H     1.0000    0     1.008  -44.173482  -14.639009  188.800081
   9 C     6.0000    0    12.011  -47.326490  -13.267370  190.694154
  10 H     1.0000    0     1.008  -48.866239  -13.337706  189.195601
  11 H     1.0000    0     1.008  -47.452157  -15.131850  191.733503
  12 C     6.0000    0    12.011  -48.163072  -11.233534  192.663249
  13 H     1.0000    0     1.008  -46.843854  -11.566825  194.182588
  14 H     1.0000    0     1.008  -47.872621   -9.443094  191.947042
  15 H     1.0000    0     1.008  -50.216826  -11.611233  193.226387
  16 S    16.0000    0    32.060  -41.458891   -2.937579  184.582024
  17 C     6.0000    0    12.011  -42.677197    0.077432  184.999086
  18 C     6.0000    0    12.011  -45.231351   -0.115146  185.242672
  19 C     6.0000    0    12.011  -46.268244   -2.530022  185.036314
  20 C     6.0000    0    12.011  -44.450894   -4.354534  184.970173
  21 H     1.0000    0     1.008  -46.229315    1.518454  185.699608
  22 C     6.0000    0    12.011  -49.062582   -2.866639  185.221885
  23 H     1.0000    0     1.008  -49.432023   -4.426778  183.881880
  24 H     1.0000    0     1.008  -50.047696   -1.169022  184.430090
  25 C     6.0000    0    12.011  -50.246873   -3.764769  187.725016
  26 H     1.0000    0     1.008  -50.144828   -2.092248  188.995290
  27 H     1.0000    0     1.008  -49.221130   -5.421719  188.593912
  28 C     6.0000    0    12.011  -53.000582   -4.252942  187.292269
  29 H     1.0000    0     1.008  -53.594145   -3.050490  185.766315
  30 H     1.0000    0     1.008  -53.791432   -3.632318  188.983952
  31 H     1.0000    0     1.008  -53.474714   -6.235151  186.845916
  32 H     1.0000    0     1.008  -45.173336  -13.489621  184.143796
  33 H     1.0000    0     1.008  -41.573597    1.787707  184.854900

--------------------------------
INTERNAL COORDINATES (ANGSTROEM)
--------------------------------
 S      0   0   0     0.000000000000     0.00000000     0.00000000
 C      1   0   0     1.673294875388     0.00000000     0.00000000
 C      2   1   0     1.420021419698   116.91700798     0.00000000
 C      3   2   1     1.459256493698   105.13795203   357.14637970
 C      4   3   2     1.375604563129   112.51596698     9.65804669
 H      4   3   2     1.066442343542   122.45787557   179.17824840
 C      3   2   1     1.522858411967   125.33118969   179.78226911
 H      7   3   2     1.013260667351   119.55930266   135.26900120
 H      7   3   2     1.040030295761   106.89018298    18.67269203
 C      7   3   2     1.538117863657   114.33124192   262.03018174
 H     10   7   3     1.137599827883   112.50430399    41.32665078
 H     10   7   3     1.131539102108   110.85391538   159.26279308
 C     10   7   3     1.562076463429   115.58641513   278.65162812
 H     13  10   7     1.079289575091   101.59636704   294.21881262
 H     13  10   7     1.031961792704   110.20494240    49.78348174
 H     13  10   7     1.144502624243   108.81298252   174.72411260
 S      5   4   3     2.783686213566   112.17896702   214.46693274
 C     17   5   4     1.734902606957   120.08261767   260.86157108
 C     18  17   5     1.361551669721   108.18592304   351.72469358
 C     19  18  17     1.394997433455   116.84716738   358.09515829
 C     20  19  18     1.363181143539   111.92104259     8.62545674
 H     19  18  17     1.041467396810   117.59513460   173.60253394
 C     20  19  18     1.492624275195   119.59309701   181.48545435
 H     23  20  19     1.105731390574   102.83067986   144.94540501
 H     23  20  19     1.119968502057   109.92440106    32.33973733
 C     23  20  19     1.540519270538   119.76229764   260.06944674
 H     26  23  20     1.112699439921   104.73236456    74.13603004
 H     26  23  20     1.129097512352   113.21374074   313.82478287
 C     26  23  20     1.497533715447   108.51715444   187.08570513
 H     29  26  23     1.074990919078   107.28216486   332.61904044
 H     29  26  23     1.041338074979   101.84119975   217.10022258
 H     29  26  23     1.104090745184   114.69111494    94.58946300
 H      2   1   3     1.095772922690   120.49164668   164.90526275
 H     18  17   5     1.079802427077   124.11287961   178.33832716

---------------------------
INTERNAL COORDINATES (A.U.)
---------------------------
 S      0   0   0     0.000000000000     0.00000000     0.00000000
 C      1   0   0     3.162069055777     0.00000000     0.00000000
 C      2   1   0     2.683451587531   116.91700798     0.00000000
 C      3   2   1     2.757595132236   105.13795203   357.14637970
 C      4   3   2     2.599515892885   112.51596698     9.65804669
 H      4   3   2     2.015283966912   122.45787557   179.17824840
 C      3   2   1     2.877785339357   125.33118969   179.78226911
 H      7   3   2     1.914785163567   119.55930266   135.26900120
 H      7   3   2     1.965372429969   106.89018298    18.67269203
 C      7   3   2     2.906621524003   114.33124192   262.03018174
 H     10   7   3     2.149752124695   112.50430399    41.32665078
 H     10   7   3     2.138299012808   110.85391538   159.26279308
 C     10   7   3     2.951896716126   115.58641513   278.65162812
 H     13  10   7     2.039561716118   101.59636704   294.21881262
 H     13  10   7     1.950125168880   110.20494240    49.78348174
 H     13  10   7     2.162796519374   108.81298252   174.72411260
 S      5   4   3     5.260404586413   112.17896702   214.46693274
 C     17   5   4     3.278490796174   120.08261767   260.86157108
 C     18  17   5     2.572959772955   108.18592304   351.72469358
 C     19  18  17     2.636163106754   116.84716738   358.09515829
 C     20  19  18     2.576039032214   111.92104259     8.62545674
 H     19  18  17     1.968088157378   117.59513460   173.60253394
 C     20  19  18     2.820651100960   119.59309701   181.48545435
 H     23  20  19     2.089529505864   102.83067986   144.94540501
 H     23  20  19     2.116433747506   109.92440106    32.33973733
 C     23  20  19     2.911159525346   119.76229764   260.06944674
 H     26  23  20     2.102697210818   104.73236456    74.13603004
 H     26  23  20     2.133685076837   113.21374074   313.82478287
 C     26  23  20     2.829928598508   108.51715444   187.08570513
 H     29  26  23     2.031438433510   107.28216486   332.61904044
 H     29  26  23     1.967843774534   101.84119975   217.10022258
 H     29  26  23     2.086429135394   114.69111494    94.58946300
 H      2   1   3     2.070710728850   120.49164668   164.90526275
 H     18  17   5     2.040530865919   124.11287961   178.33832716

---------------------
BASIS SET INFORMATION
---------------------
There are 3 groups of distinct atoms

 Group   1 Type S   : 10s7p1d contracted to 4s3p1d pattern {5311/511/1}
 Group   2 Type C   : 7s4p1d contracted to 3s2p1d pattern {511/31/1}
 Group   3 Type H   : 4s1p contracted to 2s1p pattern {31/1}

Atom   0S    basis set group =>   1
Atom   1C    basis set group =>   2
Atom   2C    basis set group =>   2
Atom   3C    basis set group =>   2
Atom   4C    basis set group =>   2
Atom   5H    basis set group =>   3
Atom   6C    basis set group =>   2
Atom   7H    basis set group =>   3
Atom   8H    basis set group =>   3
Atom   9C    basis set group =>   2
Atom  10H    basis set group =>   3
Atom  11H    basis set group =>   3
Atom  12C    basis set group =>   2
Atom  13H    basis set group =>   3
Atom  14H    basis set group =>   3
Atom  15H    basis set group =>   3
Atom  16S    basis set group =>   1
Atom  17C    basis set group =>   2
Atom  18C    basis set group =>   2
Atom  19C    basis set group =>   2
Atom  20C    basis set group =>   2
Atom  21H    basis set group =>   3
Atom  22C    basis set group =>   2
Atom  23H    basis set group =>   3
Atom  24H    basis set group =>   3
Atom  25C    basis set group =>   2
Atom  26H    basis set group =>   3
Atom  27H    basis set group =>   3
Atom  28C    basis set group =>   2
Atom  29H    basis set group =>   3
Atom  30H    basis set group =>   3
Atom  31H    basis set group =>   3
Atom  32H    basis set group =>   3
Atom  33H    basis set group =>   3


           ************************************************************
           *        Program running with 16 parallel MPI-processes    *
           *              working on a common directory               *
           ************************************************************
------------------------------------------------------------------------------
                           ORCA GTO INTEGRAL CALCULATION
------------------------------------------------------------------------------

                         BASIS SET STATISTICS AND STARTUP INFO

 # of primitive gaussian shells          ...  294
 # of primitive gaussian functions       ...  534
 # of contracted shells                  ...  154
 # of contracted basis functions         ...  322
 Highest angular momentum                ...    2
 Maximum contraction depth               ...    5
 Integral package used                   ... LIBINT
 Integral threshhold            Thresh   ...  1.000e-10
 Primitive cut-off              TCut     ...  1.000e-11


------------------------------ INTEGRAL EVALUATION ----------------------------


 * One electron integrals 
 Pre-screening matrix                    ... done
 Shell pair data                         ... done (   0.003 sec)



           ************************************************************
           *        Program running with 16 parallel MPI-processes    *
           *              working on a common directory               *
           ************************************************************
-------------------------------------------------------------------------------
                                 ORCA SCF
-------------------------------------------------------------------------------

------------
SCF SETTINGS
------------
Hamiltonian:
 Density Functional     Method          .... DFT(GTOs)
 Exchange Functional    Exchange        .... WB97X-D3
 Correlation Functional Correlation     .... WB97X-D3
 Gradients option       PostSCFGGA      .... off
 Hybrid DFT is turned on
   Fraction HF Exchange ScalHFX         ....  0.195728
   Scaling of DF-GGA-X  ScalDFX         ....  0.000000
   Scaling of DF-GGA-C  ScalDFC         ....  1.000000
   Scaling of DF-LDA-C  ScalLDAC        ....  1.000000
   Perturbative correction              ....  0.000000
   Density functional embedding theory  .... OFF
 Long-range corrected/Screened/Range-Separated Hybrid DFT is turned on
   Amount of maximum screened exact exchange              ....  0.804272
   Range separation parameter mu (erf(mu*r12)/r12)        ....  0.250000


General Settings:
 Integral files         IntName         .... config_6019
 Hartree-Fock type      HFTyp           .... RHF
 Total Charge           Charge          ....    0
 Multiplicity           Mult            ....    1
 Number of Electrons    NEL             ....  134
 Basis Dimension        Dim             ....  322
 Nuclear Repulsion      ENuc            ....   1301.8911913913 Eh

Convergence Acceleration:
 DIIS                   CNVDIIS         .... on
   Start iteration      DIISMaxIt       ....    12
   Startup error        DIISStart       ....  0.200000
   # of expansion vecs  DIISMaxEq       ....     5
   Bias factor          DIISBfac        ....   1.050
   Max. coefficient     DIISMaxC        ....  10.000
 Newton-Raphson         CNVNR           .... off
 SOSCF                  CNVSOSCF        .... on
   Start iteration      SOSCFMaxIt      ....   150
   Startup grad/error   SOSCFStart      ....  0.003300
 Level Shifting         CNVShift        .... on
   Level shift para.    LevelShift      ....    0.2500
   Turn off err/grad.   ShiftErr        ....    0.0010
 Zerner damping         CNVZerner       .... off
 Static damping         CNVDamp         .... on
   Fraction old density DampFac         ....    0.7000
   Max. Damping (<1)    DampMax         ....    0.9800
   Min. Damping (>=0)   DampMin         ....    0.0000
   Turn off err/grad.   DampErr         ....    0.1000
 Fernandez-Rico         CNVRico         .... off

SCF Procedure:
 Maximum # iterations   MaxIter         ....   125
 SCF integral mode      SCFMode         .... Direct
   Integral package                     .... LIBINT
 Reset frequency        DirectResetFreq ....    20
 Integral Threshold     Thresh          ....  1.000e-10 Eh
 Primitive CutOff       TCut            ....  1.000e-11 Eh

Convergence Tolerance:
 Convergence Check Mode ConvCheckMode   .... Total+1el-Energy
 Convergence forced     ConvForced      .... 0
 Energy Change          TolE            ....  1.000e-06 Eh
 1-El. energy change                    ....  1.000e-03 Eh
 Orbital Gradient       TolG            ....  5.000e-05
 Orbital Rotation angle TolX            ....  5.000e-05
 DIIS Error             TolErr          ....  1.000e-06


Diagonalization of the overlap matrix:
Smallest eigenvalue                        ... 5.611e-04
Time for diagonalization                   ...    0.016 sec
Threshold for overlap eigenvalues          ... 1.000e-08
Number of eigenvalues below threshold      ... 0
Time for construction of square roots      ...    0.023 sec
Total time needed                          ...    0.039 sec

-------------------
DFT GRID GENERATION
-------------------

General Integration Accuracy     IntAcc      ...  4.340
Radial Grid Type                 RadialGrid  ... Gauss-Chebyshev
Angular Grid (max. acc.)         AngularGrid ... Lebedev-110
Angular grid pruning method      GridPruning ... 3 (G Style)
Weight generation scheme         WeightScheme... Becke
Basis function cutoff            BFCut       ...    1.0000e-10
Integration weight cutoff        WCut        ...    1.0000e-14
Grids for H and He will be reduced by one unit

# of grid points (after initial pruning)     ...  41088 (   0.0 sec)
# of grid points (after weights+screening)   ...  36810 (   0.0 sec)
nearest neighbour list constructed           ...    0.0 sec
Grid point re-assignment to atoms done       ...    0.0 sec
Grid point division into batches done        ...    0.0 sec
Reduced shell lists constructed in    0.1 sec

Total number of grid points                  ...    36810
Total number of batches                      ...      592
Average number of points per batch           ...       62
Average number of grid points per atom       ...     1083
Average number of shells per batch           ...    76.79 (49.86%)
Average number of basis functions per batch  ...   151.47 (47.04%)
Average number of large shells per batch     ...    48.58 (63.26%)
Average number of large basis fcns per batch ...    99.21 (65.50%)
Maximum spatial batch extension              ...  17.85, 15.76, 13.25 au
Average spatial batch extension              ...   0.26,  0.23,  0.24 au

Time for grid setup =    0.177 sec

------------------------------
INITIAL GUESS: MODEL POTENTIAL
------------------------------
Loading Hartree-Fock densities                     ... done
Calculating cut-offs                               ... done
Setting up the integral package                    ... done
Initializing the effective Hamiltonian             ... done
Starting the Coulomb interaction                   ... done (   0.0 sec)
Reading the grid                                   ... done
Mapping shells                                     ... done
Starting the XC term evaluation                    ... done (   0.0 sec)
  promolecular density results
     # of electrons  =    133.987958929
     EX              =   -126.788063336
     EC              =     -4.628332442
     EX+EC           =   -131.416395778
Transforming the Hamiltonian                       ... done (   0.0 sec)
Diagonalizing the Hamiltonian                      ... done (   0.0 sec)
Back transforming the eigenvectors                 ... done (   0.0 sec)
Now organizing SCF variables                       ... done
                      ------------------
                      INITIAL GUESS DONE (   0.4 sec)
                      ------------------
--------------
SCF ITERATIONS
--------------
ITER       Energy         Delta-E        Max-DP      RMS-DP      [F,P]     Damp
               ***  Starting incremental Fock matrix formation  ***
  0  -1339.3826883942   0.000000000000 0.06934719  0.00163778  0.1741968 0.7000
  1  -1339.5782694816  -0.195581087368 0.04654156  0.00119521  0.1055577 0.7000
                               ***Turning on DIIS***
  2  -1339.6738024277  -0.095532946131 0.10106097  0.00225638  0.0550107 0.0000
  3  -1339.8183774989  -0.144575071122 0.04349218  0.00099722  0.0400645 0.0000
  4  -1339.8486102349  -0.030232735993 0.00793242  0.00020766  0.0083008 0.0000
                      *** Initiating the SOSCF procedure ***
                           *** Shutting down DIIS ***
                      *** Re-Reading the Fockian *** 
                      *** Removing any level shift *** 
ITER      Energy       Delta-E        Grad      Rot      Max-DP    RMS-DP
  5  -1339.84956465  -0.0009544164  0.001360  0.001360  0.003672  0.000106
               *** Restarting incremental Fock matrix formation ***
  6  -1339.84973550  -0.0001708519  0.001199  0.003147  0.003066  0.000062
  7  -1339.84978694  -0.0000514373  0.000657  0.003747  0.003685  0.000059
  8  -1339.84980111  -0.0000141649  0.000246  0.000322  0.000620  0.000017
  9  -1339.84980385  -0.0000027440  0.000102  0.000276  0.000243  0.000007
                 **** Energy Check signals convergence ****
              ***Rediagonalizing the Fockian in SOSCF/NRSCF***

               *****************************************************
               *                     SUCCESS                       *
               *           SCF CONVERGED AFTER  10 CYCLES          *
               *****************************************************

Setting up the final grid:

General Integration Accuracy     IntAcc      ...  4.670
Radial Grid Type                 RadialGrid  ... Gauss-Chebyshev
Angular Grid (max. acc.)         AngularGrid ... Lebedev-302
Angular grid pruning method      GridPruning ... 3 (G Style)
Weight generation scheme         WeightScheme... Becke
Basis function cutoff            BFCut       ...    1.0000e-10
Integration weight cutoff        WCut        ...    1.0000e-14
Grids for H and He will be reduced by one unit

# of grid points (after initial pruning)     ... 161752 (   0.0 sec)
# of grid points (after weights+screening)   ... 142141 (   0.2 sec)
nearest neighbour list constructed           ...    0.0 sec
Grid point re-assignment to atoms done       ...    0.0 sec
Grid point division into batches done        ...    0.5 sec
Reduced shell lists constructed in    0.6 sec

Total number of grid points                  ...   142141
Total number of batches                      ...     2241
Average number of points per batch           ...       63
Average number of grid points per atom       ...     4181
Average number of shells per batch           ...    70.34 (45.67%)
Average number of basis functions per batch  ...   137.45 (42.69%)
Average number of large shells per batch     ...    43.04 (61.19%)
Average number of large basis fcns per batch ...    87.76 (63.85%)
Maximum spatial batch extension              ...  15.16, 15.16, 12.37 au
Average spatial batch extension              ...   0.15,  0.15,  0.14 au

Final grid set up in    1.0 sec
Final integration                            ... done (   0.3 sec)
Change in XC energy                          ...     0.008358387
Integrated number of electrons               ...   133.999815767
Previous integrated no of electrons          ...   134.000913910

----------------
TOTAL SCF ENERGY
----------------

Total Energy       :        -1339.84144570 Eh          -36458.93927 eV

Components:
Nuclear Repulsion  :         1301.89119139 Eh           35426.26035 eV
Electronic Energy  :        -2641.73263709 Eh          -71885.19963 eV
One Electron Energy:        -4420.33458182 Eh         -120283.41906 eV
Two Electron Energy:         1778.60194472 Eh           48398.21943 eV

Virial components:
Potential Energy   :        -2671.89506750 Eh          -72705.96109 eV
Kinetic Energy     :         1332.05362179 Eh           36247.02181 eV
Virial Ratio       :            2.00584648


DFT components:
N(Alpha)           :       66.999907883251 electrons
N(Beta)            :       66.999907883251 electrons
N(Total)           :      133.999815766501 electrons
E(XC)              :      -94.352445534301 Eh       
DFET-embed. en.    :        0.000000000000 Eh       

---------------
SCF CONVERGENCE
---------------

  Last Energy change         ...   -2.4011e-07  Tolerance :   1.0000e-06
  Last MAX-Density change    ...    1.3684e-04  Tolerance :   1.0000e-05
  Last RMS-Density change    ...    3.0332e-06  Tolerance :   1.0000e-06
  Last Orbital Gradient      ...    5.7898e-05  Tolerance :   5.0000e-05
  Last Orbital Rotation      ...    1.4005e-04  Tolerance :   5.0000e-05

             **** THE GBW FILE WAS UPDATED (config_6019.gbw) ****
             **** DENSITY FILE WAS UPDATED (config_6019.scfp) ****
             **** ENERGY FILE WAS UPDATED (config_6019.en.tmp) ****
             **** THE GBW FILE WAS UPDATED (config_6019.gbw) ****
             **** DENSITY FILE WAS UPDATED (config_6019.scfp) ****
----------------
ORBITAL ENERGIES
----------------

  NO   OCC          E(Eh)            E(eV) 
   0   2.0000     -88.972521     -2421.0654 
   1   2.0000     -88.957024     -2420.6437 
   2   2.0000     -10.321128      -280.8522 
   3   2.0000     -10.320303      -280.8297 
   4   2.0000     -10.311586      -280.5925 
   5   2.0000     -10.309374      -280.5323 
   6   2.0000     -10.309153      -280.5263 
   7   2.0000     -10.294522      -280.1282 
   8   2.0000     -10.293876      -280.1106 
   9   2.0000     -10.291079      -280.0345 
  10   2.0000     -10.288913      -279.9755 
  11   2.0000     -10.286214      -279.9021 
  12   2.0000     -10.286209      -279.9020 
  13   2.0000     -10.277770      -279.6724 
  14   2.0000     -10.277740      -279.6715 
  15   2.0000     -10.266993      -279.3791 
  16   2.0000      -8.089773      -220.1339 
  17   2.0000      -8.072163      -219.6547 
  18   2.0000      -6.047855      -164.5705 
  19   2.0000      -6.043898      -164.4628 
  20   2.0000      -6.040878      -164.3806 
  21   2.0000      -6.030624      -164.1016 
  22   2.0000      -6.026540      -163.9905 
  23   2.0000      -6.023044      -163.8954 
  24   2.0000      -1.017159       -27.6783 
  25   2.0000      -0.992724       -27.0134 
  26   2.0000      -0.914534       -24.8857 
  27   2.0000      -0.912394       -24.8275 
  28   2.0000      -0.868201       -23.6250 
  29   2.0000      -0.855271       -23.2731 
  30   2.0000      -0.852702       -23.2032 
  31   2.0000      -0.815101       -22.1800 
  32   2.0000      -0.787879       -21.4393 
  33   2.0000      -0.770379       -20.9631 
  34   2.0000      -0.697244       -18.9730 
  35   2.0000      -0.693364       -18.8674 
  36   2.0000      -0.685878       -18.6637 
  37   2.0000      -0.661895       -18.0111 
  38   2.0000      -0.652170       -17.7464 
  39   2.0000      -0.620936       -16.8965 
  40   2.0000      -0.599593       -16.3158 
  41   2.0000      -0.578219       -15.7341 
  42   2.0000      -0.568557       -15.4712 
  43   2.0000      -0.549737       -14.9591 
  44   2.0000      -0.543286       -14.7836 
  45   2.0000      -0.528930       -14.3929 
  46   2.0000      -0.518643       -14.1130 
  47   2.0000      -0.514094       -13.9892 
  48   2.0000      -0.509597       -13.8668 
  49   2.0000      -0.497326       -13.5329 
  50   2.0000      -0.487829       -13.2745 
  51   2.0000      -0.482905       -13.1405 
  52   2.0000      -0.473010       -12.8712 
  53   2.0000      -0.462805       -12.5936 
  54   2.0000      -0.462180       -12.5766 
  55   2.0000      -0.452551       -12.3145 
  56   2.0000      -0.442318       -12.0361 
  57   2.0000      -0.437991       -11.9183 
  58   2.0000      -0.430861       -11.7243 
  59   2.0000      -0.424026       -11.5383 
  60   2.0000      -0.417305       -11.3555 
  61   2.0000      -0.414536       -11.2801 
  62   2.0000      -0.412486       -11.2243 
  63   2.0000      -0.338172        -9.2021 
  64   2.0000      -0.325692        -8.8625 
  65   2.0000      -0.316220        -8.6048 
  66   2.0000      -0.312767        -8.5108 
  67   0.0000       0.051184         1.3928 
  68   0.0000       0.055367         1.5066 
  69   0.0000       0.112906         3.0723 
  70   0.0000       0.126552         3.4437 
  71   0.0000       0.131221         3.5707 
  72   0.0000       0.140779         3.8308 
  73   0.0000       0.148396         4.0381 
  74   0.0000       0.158232         4.3057 
  75   0.0000       0.166248         4.5238 
  76   0.0000       0.175510         4.7759 
  77   0.0000       0.179944         4.8965 
  78   0.0000       0.185869         5.0578 
  79   0.0000       0.195662         5.3242 
  80   0.0000       0.199341         5.4243 
  81   0.0000       0.201601         5.4858 
  82   0.0000       0.216175         5.8824 
  83   0.0000       0.220525         6.0008 
  84   0.0000       0.226598         6.1660 
  85   0.0000       0.229975         6.2579 
  86   0.0000       0.233740         6.3604 
  87   0.0000       0.242085         6.5875 
  88   0.0000       0.247628         6.7383 
  89   0.0000       0.260314         7.0835 
  90   0.0000       0.262490         7.1427 
  91   0.0000       0.273153         7.4329 
  92   0.0000       0.282400         7.6845 
  93   0.0000       0.297487         8.0950 
  94   0.0000       0.316661         8.6168 
  95   0.0000       0.325036         8.8447 
  96   0.0000       0.336096         9.1456 
  97   0.0000       0.343441         9.3455 
  98   0.0000       0.356276         9.6948 
  99   0.0000       0.365970         9.9585 
 100   0.0000       0.383199        10.4274 
 101   0.0000       0.411909        11.2086 
 102   0.0000       0.416607        11.3365 
 103   0.0000       0.418961        11.4005 
 104   0.0000       0.447011        12.1638 
 105   0.0000       0.449383        12.2283 
 106   0.0000       0.469615        12.7789 
 107   0.0000       0.479489        13.0476 
 108   0.0000       0.485705        13.2167 
 109   0.0000       0.494616        13.4592 
 110   0.0000       0.501112        13.6359 
 111   0.0000       0.510001        13.8778 
 112   0.0000       0.521720        14.1967 
 113   0.0000       0.525009        14.2862 
 114   0.0000       0.529135        14.3985 
 115   0.0000       0.540695        14.7131 
 116   0.0000       0.546862        14.8809 
 117   0.0000       0.553570        15.0634 
 118   0.0000       0.557177        15.1616 
 119   0.0000       0.567816        15.4511 
 120   0.0000       0.585537        15.9333 
 121   0.0000       0.590900        16.0792 
 122   0.0000       0.594838        16.1864 
 123   0.0000       0.607964        16.5435 
 124   0.0000       0.613224        16.6867 
 125   0.0000       0.629408        17.1271 
 126   0.0000       0.640398        17.4261 
 127   0.0000       0.644885        17.5482 
 128   0.0000       0.658331        17.9141 
 129   0.0000       0.666514        18.1368 
 130   0.0000       0.674980        18.3671 
 131   0.0000       0.685796        18.6614 
 132   0.0000       0.686132        18.6706 
 133   0.0000       0.695263        18.9191 
 134   0.0000       0.704541        19.1715 
 135   0.0000       0.711754        19.3678 
 136   0.0000       0.725482        19.7414 
 137   0.0000       0.727480        19.7957 
 138   0.0000       0.733821        19.9683 
 139   0.0000       0.740445        20.1485 
 140   0.0000       0.741741        20.1838 
 141   0.0000       0.749601        20.3977 
 142   0.0000       0.752759        20.4836 
 143   0.0000       0.762056        20.7366 
 144   0.0000       0.762565        20.7504 
 145   0.0000       0.767222        20.8772 
 146   0.0000       0.773850        21.0575 
 147   0.0000       0.777709        21.1625 
 148   0.0000       0.780483        21.2380 
 149   0.0000       0.791275        21.5317 
 150   0.0000       0.795448        21.6452 
 151   0.0000       0.797960        21.7136 
 152   0.0000       0.799684        21.7605 
 153   0.0000       0.804338        21.8871 
 154   0.0000       0.807432        21.9713 
 155   0.0000       0.809155        22.0182 
 156   0.0000       0.814119        22.1533 
 157   0.0000       0.816956        22.2305 
 158   0.0000       0.818205        22.2645 
 159   0.0000       0.822664        22.3858 
 160   0.0000       0.828904        22.5556 
 161   0.0000       0.840312        22.8661 
 162   0.0000       0.844478        22.9794 
 163   0.0000       0.855798        23.2874 
 164   0.0000       0.864118        23.5138 
 165   0.0000       0.868626        23.6365 
 166   0.0000       0.878084        23.8939 
 167   0.0000       0.888785        24.1851 
 168   0.0000       0.902513        24.5586 
 169   0.0000       0.912422        24.8283 
 170   0.0000       0.917024        24.9535 
 171   0.0000       0.928446        25.2643 
 172   0.0000       0.944062        25.6892 
 173   0.0000       0.961488        26.1634 
 174   0.0000       0.969468        26.3806 
 175   0.0000       0.980677        26.6856 
 176   0.0000       0.994668        27.0663 
 177   0.0000       1.001129        27.2421 
 178   0.0000       1.020678        27.7740 
 179   0.0000       1.048089        28.5200 
 180   0.0000       1.053124        28.6570 
 181   0.0000       1.071104        29.1462 
 182   0.0000       1.086520        29.5657 
 183   0.0000       1.093710        29.7614 
 184   0.0000       1.113463        30.2989 
 185   0.0000       1.122327        30.5401 
 186   0.0000       1.135554        30.9000 
 187   0.0000       1.157379        31.4939 
 188   0.0000       1.194707        32.5096 
 189   0.0000       1.210735        32.9458 
 190   0.0000       1.225956        33.3600 
 191   0.0000       1.241538        33.7840 
 192   0.0000       1.262457        34.3532 
 193   0.0000       1.265218        34.4283 
 194   0.0000       1.282346        34.8944 
 195   0.0000       1.306545        35.5529 
 196   0.0000       1.317892        35.8617 
 197   0.0000       1.344418        36.5835 
 198   0.0000       1.376521        37.4571 
 199   0.0000       1.388562        37.7847 
 200   0.0000       1.419723        38.6326 
 201   0.0000       1.431451        38.9518 
 202   0.0000       1.441243        39.2182 
 203   0.0000       1.463393        39.8209 
 204   0.0000       1.471982        40.0547 
 205   0.0000       1.481492        40.3134 
 206   0.0000       1.492005        40.5995 
 207   0.0000       1.508142        41.0386 
 208   0.0000       1.517925        41.3048 
 209   0.0000       1.560611        42.4664 
 210   0.0000       1.584553        43.1179 
 211   0.0000       1.627171        44.2776 
 212   0.0000       1.638199        44.5777 
 213   0.0000       1.647017        44.8176 
 214   0.0000       1.657249        45.0960 
 215   0.0000       1.664734        45.2997 
 216   0.0000       1.685085        45.8535 
 217   0.0000       1.714871        46.6640 
 218   0.0000       1.758679        47.8561 
 219   0.0000       1.772781        48.2398 
 220   0.0000       1.796481        48.8847 
 221   0.0000       1.804220        49.0953 
 222   0.0000       1.808233        49.2045 
 223   0.0000       1.823389        49.6169 
 224   0.0000       1.827852        49.7384 
 225   0.0000       1.836663        49.9782 
 226   0.0000       1.839946        50.0675 
 227   0.0000       1.851598        50.3845 
 228   0.0000       1.858990        50.5857 
 229   0.0000       1.864898        50.7464 
 230   0.0000       1.871301        50.9207 
 231   0.0000       1.889561        51.4176 
 232   0.0000       1.891147        51.4607 
 233   0.0000       1.901406        51.7399 
 234   0.0000       1.903554        51.7983 
 235   0.0000       1.909097        51.9492 
 236   0.0000       1.911484        52.0141 
 237   0.0000       1.920489        52.2592 
 238   0.0000       1.934348        52.6363 
 239   0.0000       1.935926        52.6792 
 240   0.0000       1.940429        52.8018 
 241   0.0000       1.953347        53.1533 
 242   0.0000       1.962504        53.4025 
 243   0.0000       1.974764        53.7361 
 244   0.0000       1.991044        54.1791 
 245   0.0000       1.998725        54.3881 
 246   0.0000       2.000284        54.4305 
 247   0.0000       2.021404        55.0052 
 248   0.0000       2.026400        55.1412 
 249   0.0000       2.035120        55.3784 
 250   0.0000       2.045718        55.6668 
 251   0.0000       2.055288        55.9272 
 252   0.0000       2.068870        56.2968 
 253   0.0000       2.079507        56.5863 
 254   0.0000       2.093809        56.9754 
 255   0.0000       2.103423        57.2371 
 256   0.0000       2.129646        57.9506 
 257   0.0000       2.133695        58.0608 
 258   0.0000       2.178065        59.2682 
 259   0.0000       2.185823        59.4793 
 260   0.0000       2.192135        59.6510 
 261   0.0000       2.202635        59.9367 
 262   0.0000       2.220643        60.4268 
 263   0.0000       2.222426        60.4753 
 264   0.0000       2.244673        61.0807 
 265   0.0000       2.256421        61.4003 
 266   0.0000       2.268348        61.7249 
 267   0.0000       2.287886        62.2565 
 268   0.0000       2.310095        62.8609 
 269   0.0000       2.315885        63.0184 
 270   0.0000       2.345230        63.8169 
 271   0.0000       2.351429        63.9856 
 272   0.0000       2.364100        64.3304 
 273   0.0000       2.384519        64.8861 
 274   0.0000       2.395226        65.1774 
 275   0.0000       2.403640        65.4064 
 276   0.0000       2.452270        66.7297 
 277   0.0000       2.453178        66.7544 
 278   0.0000       2.459342        66.9221 
 279   0.0000       2.473407        67.3048 
 280   0.0000       2.490993        67.7834 
 281   0.0000       2.493581        67.8538 
 282   0.0000       2.507046        68.2202 
 283   0.0000       2.538385        69.0730 
 284   0.0000       2.557376        69.5897 
 285   0.0000       2.580865        70.2289 
 286   0.0000       2.593556        70.5742 
 287   0.0000       2.600359        70.7594 
 288   0.0000       2.609319        71.0032 
 289   0.0000       2.631663        71.6112 
 290   0.0000       2.652966        72.1909 
 291   0.0000       2.694404        73.3185 
 292   0.0000       2.704517        73.5937 
 293   0.0000       2.705952        73.6327 
 294   0.0000       2.725104        74.1539 
 295   0.0000       2.744725        74.6878 
 296   0.0000       2.775712        75.5310 
 297   0.0000       2.787154        75.8423 
 298   0.0000       2.797996        76.1373 
 299   0.0000       2.858906        77.7948 
 300   0.0000       2.885410        78.5160 
 301   0.0000       2.892454        78.7077 
 302   0.0000       2.896081        78.8064 
 303   0.0000       2.923315        79.5474 
 304   0.0000       2.954581        80.3982 
 305   0.0000       2.982846        81.1674 
 306   0.0000       3.007370        81.8347 
 307   0.0000       3.031638        82.4951 
 308   0.0000       3.040769        82.7435 
 309   0.0000       3.058027        83.2131 
 310   0.0000       3.074416        83.6591 
 311   0.0000       3.098129        84.3044 
 312   0.0000       3.114817        84.7585 
 313   0.0000       3.124187        85.0134 
 314   0.0000       3.132657        85.2439 
 315   0.0000       3.150011        85.7162 
 316   0.0000       3.156144        85.8831 
 317   0.0000       3.203748        87.1784 
 318   0.0000       3.274169        89.0947 
 319   0.0000       3.315043        90.2069 
 320   0.0000       3.366532        91.6080 
 321   0.0000       3.492193        95.0274 

                    ********************************
                    * MULLIKEN POPULATION ANALYSIS *
                    ********************************

-----------------------
MULLIKEN ATOMIC CHARGES
-----------------------
   0 S :    0.167116
   1 C :   -0.124453
   2 C :   -0.113935
   3 C :    0.040730
   4 C :   -0.181499
   5 H :    0.012143
   6 C :    0.183451
   7 H :   -0.003666
   8 H :   -0.001774
   9 C :   -0.150300
  10 H :    0.033033
  11 H :    0.035934
  12 C :   -0.032070
  13 H :    0.023183
  14 H :    0.016489
  15 H :    0.054095
  16 S :    0.097402
  17 C :   -0.088557
  18 C :   -0.030951
  19 C :    0.020788
  20 C :   -0.196799
  21 H :   -0.010707
  22 C :    0.023035
  23 H :    0.022398
  24 H :    0.031715
  25 C :   -0.096770
  26 H :    0.023419
  27 H :    0.051292
  28 C :    0.008586
  29 H :    0.018624
  30 H :    0.017009
  31 H :    0.043130
  32 H :    0.051458
  33 H :    0.056452
Sum of atomic charges:    0.0000000

--------------------------------
MULLIKEN REDUCED ORBITAL CHARGES
--------------------------------
  0 S s       :     5.829947  s :     5.829947
      pz      :     3.303617  p :     9.873722
      px      :     3.620266
      py      :     2.949839
      dz2     :     0.017794  d :     0.129215
      dxz     :     0.013132
      dyz     :     0.053656
      dx2y2   :     0.014731
      dxy     :     0.029902
  1 C s       :     3.149196  s :     3.149196
      pz      :     0.934770  p :     2.939656
      px      :     1.117754
      py      :     0.887132
      dz2     :     0.007010  d :     0.035601
      dxz     :     0.007704
      dyz     :     0.012777
      dx2y2   :     0.004134
      dxy     :     0.003976
  2 C s       :     3.105697  s :     3.105697
      pz      :     0.974335  p :     2.967146
      px      :     0.994125
      py      :     0.998686
      dz2     :     0.011545  d :     0.041092
      dxz     :     0.006900
      dyz     :     0.010717
      dx2y2   :     0.006146
      dxy     :     0.005784
  3 C s       :     3.198069  s :     3.198069
      pz      :     0.835064  p :     2.726574
      px      :     0.999115
      py      :     0.892395
      dz2     :     0.008542  d :     0.034627
      dxz     :     0.004662
      dyz     :     0.010875
      dx2y2   :     0.004822
      dxy     :     0.005727
  4 C s       :     3.042786  s :     3.042786
      pz      :     0.946973  p :     3.091201
      px      :     1.127918
      py      :     1.016310
      dz2     :     0.009471  d :     0.047512
      dxz     :     0.009037
      dyz     :     0.017317
      dx2y2   :     0.006432
      dxy     :     0.005255
  5 H s       :     0.963649  s :     0.963649
      pz      :     0.012293  p :     0.024208
      px      :     0.005296
      py      :     0.006619
  6 C s       :     2.867311  s :     2.867311
      pz      :     0.925284  p :     2.913033
      px      :     0.998667
      py      :     0.989082
      dz2     :     0.005006  d :     0.036205
      dxz     :     0.010555
      dyz     :     0.007890
      dx2y2   :     0.008103
      dxy     :     0.004651
  7 H s       :     0.976122  s :     0.976122
      pz      :     0.011715  p :     0.027544
      px      :     0.009962
      py      :     0.005866
  8 H s       :     0.975426  s :     0.975426
      pz      :     0.007039  p :     0.026348
      px      :     0.006223
      py      :     0.013085
  9 C s       :     3.110228  s :     3.110228
      pz      :     1.005827  p :     3.004260
      px      :     0.984501
      py      :     1.013931
      dz2     :     0.004345  d :     0.035812
      dxz     :     0.009891
      dyz     :     0.008012
      dx2y2   :     0.009453
      dxy     :     0.004111
 10 H s       :     0.946357  s :     0.946357
      pz      :     0.008414  p :     0.020610
      px      :     0.008245
      py      :     0.003951
 11 H s       :     0.943722  s :     0.943722
      pz      :     0.006121  p :     0.020344
      px      :     0.003467
      py      :     0.010756
 12 C s       :     3.008637  s :     3.008637
      pz      :     1.005184  p :     2.995636
      px      :     0.991217
      py      :     0.999235
      dz2     :     0.004110  d :     0.027797
      dxz     :     0.006883
      dyz     :     0.005773
      dx2y2   :     0.008665
      dxy     :     0.002366
 13 H s       :     0.952102  s :     0.952102
      pz      :     0.010698  p :     0.024715
      px      :     0.008375
      py      :     0.005642
 14 H s       :     0.956850  s :     0.956850
      pz      :     0.007092  p :     0.026661
      px      :     0.005576
      py      :     0.013993
 15 H s       :     0.924923  s :     0.924923
      pz      :     0.004405  p :     0.020982
      px      :     0.012472
      py      :     0.004104
 16 S s       :     5.843483  s :     5.843483
      pz      :     3.659842  p :     9.951087
      px      :     3.283701
      py      :     3.007544
      dz2     :     0.011901  d :     0.108028
      dxz     :     0.012132
      dyz     :     0.022597
      dx2y2   :     0.030104
      dxy     :     0.031295
 17 C s       :     3.150806  s :     3.150806
      pz      :     1.082609  p :     2.901674
      px      :     0.962776
      py      :     0.856290
      dz2     :     0.003151  d :     0.036076
      dxz     :     0.006810
      dyz     :     0.003993
      dx2y2   :     0.009522
      dxy     :     0.012600
 18 C s       :     3.170055  s :     3.170055
      pz      :     1.016870  p :     2.823130
      px      :     0.894837
      py      :     0.911423
      dz2     :     0.002723  d :     0.037766
      dxz     :     0.006779
      dyz     :     0.004884
      dx2y2   :     0.012013
      dxy     :     0.011367
 19 C s       :     3.026205  s :     3.026205
      pz      :     0.986040  p :     2.906371
      px      :     0.964839
      py      :     0.955493
      dz2     :     0.003267  d :     0.046636
      dxz     :     0.007771
      dyz     :     0.007729
      dx2y2   :     0.012294
      dxy     :     0.015574
 20 C s       :     3.088551  s :     3.088551
      pz      :     1.129119  p :     3.063428
      px      :     0.926981
      py      :     1.007329
      dz2     :     0.003469  d :     0.044820
      dxz     :     0.006820
      dyz     :     0.005976
      dx2y2   :     0.013332
      dxy     :     0.015224
 21 H s       :     0.984849  s :     0.984849
      pz      :     0.006458  p :     0.025858
      px      :     0.007223
      py      :     0.012177
 22 C s       :     2.959160  s :     2.959160
      pz      :     1.014587  p :     2.981380
      px      :     0.976235
      py      :     0.990558
      dz2     :     0.006116  d :     0.036425
      dxz     :     0.007092
      dyz     :     0.009193
      dx2y2   :     0.008374
      dxy     :     0.005650
 23 H s       :     0.954688  s :     0.954688
      pz      :     0.008366  p :     0.022914
      px      :     0.004548
      py      :     0.010000
 24 H s       :     0.947048  s :     0.947048
      pz      :     0.005297  p :     0.021237
      px      :     0.005493
      py      :     0.010447
 25 C s       :     3.083311  s :     3.083311
      pz      :     0.989181  p :     2.976206
      px      :     0.978495
      py      :     1.008530
      dz2     :     0.005788  d :     0.037253
      dxz     :     0.007833
      dyz     :     0.009431
      dx2y2   :     0.008049
      dxy     :     0.006151
 26 H s       :     0.954486  s :     0.954486
      pz      :     0.007706  p :     0.022095
      px      :     0.004218
      py      :     0.010171
 27 H s       :     0.927962  s :     0.927962
      pz      :     0.004933  p :     0.020746
      px      :     0.005779
      py      :     0.010035
 28 C s       :     2.962940  s :     2.962940
      pz      :     1.006285  p :     2.998576
      px      :     0.978509
      py      :     1.013781
      dz2     :     0.005253  d :     0.029898
      dxz     :     0.006526
      dyz     :     0.005884
      dx2y2   :     0.007156
      dxy     :     0.005079
 29 H s       :     0.956401  s :     0.956401
      pz      :     0.011033  p :     0.024975
      px      :     0.005581
      py      :     0.008362
 30 H s       :     0.955507  s :     0.955507
      pz      :     0.013088  p :     0.027484
      px      :     0.008033
      py      :     0.006363
 31 H s       :     0.933650  s :     0.933650
      pz      :     0.005333  p :     0.023220
      px      :     0.004358
      py      :     0.013529
 32 H s       :     0.925140  s :     0.925140
      pz      :     0.003959  p :     0.023402
      px      :     0.006154
      py      :     0.013289
 33 H s       :     0.919658  s :     0.919658
      pz      :     0.005324  p :     0.023890
      px      :     0.006966
      py      :     0.011600


                     *******************************
                     * LOEWDIN POPULATION ANALYSIS *
                     *******************************

----------------------
LOEWDIN ATOMIC CHARGES
----------------------
   0 S :    0.482560
   1 C :   -0.225679
   2 C :   -0.051009
   3 C :   -0.050362
   4 C :   -0.236312
   5 H :    0.026221
   6 C :   -0.021465
   7 H :    0.019173
   8 H :    0.029115
   9 C :   -0.043099
  10 H :    0.023126
  11 H :    0.026337
  12 C :   -0.062036
  13 H :    0.021865
  14 H :    0.007993
  15 H :    0.039076
  16 S :    0.398928
  17 C :   -0.185989
  18 C :   -0.072600
  19 C :   -0.064485
  20 C :   -0.191386
  21 H :    0.019626
  22 C :   -0.041271
  23 H :    0.032355
  24 H :    0.034201
  25 C :   -0.041009
  26 H :    0.022750
  27 H :    0.031537
  28 C :   -0.057523
  29 H :    0.023348
  30 H :    0.020176
  31 H :    0.030188
  32 H :    0.025202
  33 H :    0.030450

-------------------------------
LOEWDIN REDUCED ORBITAL CHARGES
-------------------------------
  0 S s       :     5.448645  s :     5.448645
      pz      :     3.367514  p :     9.904446
      px      :     3.568832
      py      :     2.968100
      dz2     :     0.020083  d :     0.164348
      dxz     :     0.012993
      dyz     :     0.072577
      dx2y2   :     0.021324
      dxy     :     0.037372
  1 C s       :     2.930054  s :     2.930054
      pz      :     1.056466  p :     3.210478
      px      :     1.116748
      py      :     1.037264
      dz2     :     0.021055  d :     0.085148
      dxz     :     0.015428
      dyz     :     0.032837
      dx2y2   :     0.008440
      dxy     :     0.007388
  2 C s       :     2.876736  s :     2.876736
      pz      :     1.049492  p :     3.074979
      px      :     0.980662
      py      :     1.044825
      dz2     :     0.032533  d :     0.099294
      dxz     :     0.013064
      dyz     :     0.027343
      dx2y2   :     0.014935
      dxy     :     0.011419
  3 C s       :     2.869949  s :     2.869949
      pz      :     1.051695  p :     3.089431
      px      :     1.006142
      py      :     1.031594
      dz2     :     0.026658  d :     0.090981
      dxz     :     0.009390
      dyz     :     0.030384
      dx2y2   :     0.012754
      dxy     :     0.011795
  4 C s       :     2.898264  s :     2.898264
      pz      :     1.077499  p :     3.224312
      px      :     1.101790
      py      :     1.045023
      dz2     :     0.025975  d :     0.113736
      dxz     :     0.018167
      dyz     :     0.043462
      dx2y2   :     0.015180
      dxy     :     0.010952
  5 H s       :     0.900722  s :     0.900722
      pz      :     0.035763  p :     0.073057
      px      :     0.016270
      py      :     0.021024
  6 C s       :     2.792848  s :     2.792848
      pz      :     1.035857  p :     3.135238
      px      :     1.049434
      py      :     1.049946
      dz2     :     0.012371  d :     0.093379
      dxz     :     0.026858
      dyz     :     0.022312
      dx2y2   :     0.021925
      dxy     :     0.009913
  7 H s       :     0.897839  s :     0.897839
      pz      :     0.033977  p :     0.082989
      px      :     0.030402
      py      :     0.018610
  8 H s       :     0.894023  s :     0.894023
      pz      :     0.019629  p :     0.076862
      px      :     0.019772
      py      :     0.037461
  9 C s       :     2.862181  s :     2.862181
      pz      :     1.038802  p :     3.097389
      px      :     1.017696
      py      :     1.040891
      dz2     :     0.008225  d :     0.083529
      dxz     :     0.024348
      dyz     :     0.019871
      dx2y2   :     0.022749
      dxy     :     0.008335
 10 H s       :     0.916925  s :     0.916925
      pz      :     0.023833  p :     0.059949
      px      :     0.024696
      py      :     0.011420
 11 H s       :     0.913253  s :     0.913253
      pz      :     0.018017  p :     0.060410
      px      :     0.010827
      py      :     0.031566
 12 C s       :     2.834005  s :     2.834005
      pz      :     1.054218  p :     3.157634
      px      :     1.043897
      py      :     1.059519
      dz2     :     0.009227  d :     0.070397
      dxz     :     0.017137
      dyz     :     0.016237
      dx2y2   :     0.022222
      dxy     :     0.005574
 13 H s       :     0.908807  s :     0.908807
      pz      :     0.029738  p :     0.069329
      px      :     0.024332
      py      :     0.015259
 14 H s       :     0.913722  s :     0.913722
      pz      :     0.021567  p :     0.078285
      px      :     0.016161
      py      :     0.040557
 15 H s       :     0.903790  s :     0.903790
      pz      :     0.012085  p :     0.057134
      px      :     0.034258
      py      :     0.010791
 16 S s       :     5.507092  s :     5.507092
      pz      :     3.619804  p :     9.960639
      px      :     3.319163
      py      :     3.021671
      dz2     :     0.014682  d :     0.133342
      dxz     :     0.013000
      dyz     :     0.027442
      dx2y2   :     0.037722
      dxy     :     0.040495
 17 C s       :     2.924891  s :     2.924891
      pz      :     1.079003  p :     3.176224
      px      :     1.086194
      py      :     1.011027
      dz2     :     0.006468  d :     0.084873
      dxz     :     0.013266
      dyz     :     0.007495
      dx2y2   :     0.025884
      dxy     :     0.031760
 18 C s       :     2.844764  s :     2.844764
      pz      :     1.015035  p :     3.126956
      px      :     1.065927
      py      :     1.045994
      dz2     :     0.006812  d :     0.100879
      dxz     :     0.014546
      dyz     :     0.010195
      dx2y2   :     0.035947
      dxy     :     0.033379
 19 C s       :     2.843315  s :     2.843315
      pz      :     0.977596  p :     3.102415
      px      :     1.058078
      py      :     1.066741
      dz2     :     0.008042  d :     0.118755
      dxz     :     0.015150
      dyz     :     0.016562
      dx2y2   :     0.036092
      dxy     :     0.042909
 20 C s       :     2.903432  s :     2.903432
      pz      :     1.103281  p :     3.180492
      px      :     1.028994
      py      :     1.048217
      dz2     :     0.007429  d :     0.107463
      dxz     :     0.013795
      dyz     :     0.012129
      dx2y2   :     0.035988
      dxy     :     0.038122
 21 H s       :     0.903022  s :     0.903022
      pz      :     0.020227  p :     0.077352
      px      :     0.021628
      py      :     0.035498
 22 C s       :     2.834868  s :     2.834868
      pz      :     1.048230  p :     3.116030
      px      :     1.014772
      py      :     1.053028
      dz2     :     0.015300  d :     0.090373
      dxz     :     0.016983
      dyz     :     0.022041
      dx2y2   :     0.021742
      dxy     :     0.014306
 23 H s       :     0.901111  s :     0.901111
      pz      :     0.024801  p :     0.066534
      px      :     0.014004
      py      :     0.027729
 24 H s       :     0.903928  s :     0.903928
      pz      :     0.016212  p :     0.061872
      px      :     0.016640
      py      :     0.029020
 25 C s       :     2.843744  s :     2.843744
      pz      :     1.030671  p :     3.107805
      px      :     1.025426
      py      :     1.051708
      dz2     :     0.013972  d :     0.089460
      dxz     :     0.017973
      dyz     :     0.023185
      dx2y2   :     0.019735
      dxy     :     0.014596
 26 H s       :     0.913464  s :     0.913464
      pz      :     0.022640  p :     0.063786
      px      :     0.012470
      py      :     0.028676
 27 H s       :     0.907175  s :     0.907175
      pz      :     0.015633  p :     0.061288
      px      :     0.017775
      py      :     0.027880
 28 C s       :     2.814681  s :     2.814681
      pz      :     1.066776  p :     3.165419
      px      :     1.037986
      py      :     1.060657
      dz2     :     0.014875  d :     0.077423
      dxz     :     0.015867
      dyz     :     0.015006
      dx2y2   :     0.020406
      dxy     :     0.011269
 29 H s       :     0.907373  s :     0.907373
      pz      :     0.029085  p :     0.069279
      px      :     0.016982
      py      :     0.023213
 30 H s       :     0.902638  s :     0.902638
      pz      :     0.035730  p :     0.077186
      px      :     0.023308
      py      :     0.018148
 31 H s       :     0.906246  s :     0.906246
      pz      :     0.013119  p :     0.063566
      px      :     0.013934
      py      :     0.036513
 32 H s       :     0.901823  s :     0.901823
      pz      :     0.013088  p :     0.072976
      px      :     0.019930
      py      :     0.039958
 33 H s       :     0.894693  s :     0.894693
      pz      :     0.017217  p :     0.074857
      px      :     0.020676
      py      :     0.036965


                      *****************************
                      * MAYER POPULATION ANALYSIS *
                      *****************************

  NA   - Mulliken gross atomic population
  ZA   - Total nuclear charge
  QA   - Mulliken gross atomic charge
  VA   - Mayer's total valence
  BVA  - Mayer's bonded valence
  FA   - Mayer's free valence

  ATOM       NA         ZA         QA         VA         BVA        FA
  0 S     15.8329    16.0000     0.1671     2.5676     2.5676     0.0000
  1 C      6.1245     6.0000    -0.1245     3.8375     3.8375     0.0000
  2 C      6.1139     6.0000    -0.1139     4.0461     4.0461    -0.0000
  3 C      5.9593     6.0000     0.0407     3.9321     3.9321    -0.0000
  4 C      6.1815     6.0000    -0.1815     3.8635     3.8635     0.0000
  5 H      0.9879     1.0000     0.0121     1.0037     1.0037     0.0000
  6 C      5.8165     6.0000     0.1835     3.9421     3.9421     0.0000
  7 H      1.0037     1.0000    -0.0037     0.9989     0.9989     0.0000
  8 H      1.0018     1.0000    -0.0018     0.9949     0.9949    -0.0000
  9 C      6.1503     6.0000    -0.1503     4.0773     4.0773    -0.0000
 10 H      0.9670     1.0000     0.0330     0.9794     0.9794    -0.0000
 11 H      0.9641     1.0000     0.0359     0.9705     0.9705    -0.0000
 12 C      6.0321     6.0000    -0.0321     3.9923     3.9923    -0.0000
 13 H      0.9768     1.0000     0.0232     0.9900     0.9900    -0.0000
 14 H      0.9835     1.0000     0.0165     1.0047     1.0047     0.0000
 15 H      0.9459     1.0000     0.0541     0.9843     0.9843     0.0000
 16 S     15.9026    16.0000     0.0974     2.4809     2.4809     0.0000
 17 C      6.0886     6.0000    -0.0886     3.8225     3.8225    -0.0000
 18 C      6.0310     6.0000    -0.0310     3.9613     3.9613     0.0000
 19 C      5.9792     6.0000     0.0208     4.0102     4.0102     0.0000
 20 C      6.1968     6.0000    -0.1968     3.9172     3.9172     0.0000
 21 H      1.0107     1.0000    -0.0107     0.9989     0.9989     0.0000
 22 C      5.9770     6.0000     0.0230     3.9728     3.9728     0.0000
 23 H      0.9776     1.0000     0.0224     0.9857     0.9857     0.0000
 24 H      0.9683     1.0000     0.0317     0.9880     0.9880     0.0000
 25 C      6.0968     6.0000    -0.0968     4.0860     4.0860    -0.0000
 26 H      0.9766     1.0000     0.0234     0.9727     0.9727    -0.0000
 27 H      0.9487     1.0000     0.0513     0.9882     0.9882    -0.0000
 28 C      5.9914     6.0000     0.0086     3.9858     3.9858    -0.0000
 29 H      0.9814     1.0000     0.0186     1.0029     1.0029    -0.0000
 30 H      0.9830     1.0000     0.0170     0.9917     0.9917     0.0000
 31 H      0.9569     1.0000     0.0431     0.9881     0.9881    -0.0000
 32 H      0.9485     1.0000     0.0515     0.9998     0.9998     0.0000
 33 H      0.9435     1.0000     0.0565     0.9950     0.9950     0.0000

  Mayer bond orders larger than 0.100000
B(  0-S ,  1-C ) :   1.1879 B(  0-S ,  4-C ) :   1.1863 B(  1-C ,  2-C ) :   1.5815 
B(  1-C , 32-H ) :   0.9551 B(  2-C ,  3-C ) :   1.2649 B(  2-C ,  6-C ) :   1.0309 
B(  3-C ,  4-C ) :   1.5508 B(  3-C ,  5-H ) :   0.9952 B(  4-C , 20-C ) :   0.9947 
B(  6-C ,  7-H ) :   0.9393 B(  6-C ,  8-H ) :   0.9214 B(  6-C ,  9-C ) :   1.0600 
B(  9-C , 10-H ) :   0.9586 B(  9-C , 11-H ) :   0.9600 B(  9-C , 12-C ) :   1.0650 
B( 12-C , 13-H ) :   0.9759 B( 12-C , 14-H ) :   0.9803 B( 12-C , 15-H ) :   0.9739 
B( 16-S , 17-C ) :   1.1585 B( 16-S , 20-C ) :   1.1529 B( 17-C , 18-C ) :   1.5944 
B( 17-C , 20-C ) :   0.1005 B( 17-C , 33-H ) :   0.9703 B( 18-C , 19-C ) :   1.2485 
B( 18-C , 21-H ) :   1.0026 B( 19-C , 20-C ) :   1.6035 B( 19-C , 22-C ) :   1.0484 
B( 22-C , 23-H ) :   0.9244 B( 22-C , 24-H ) :   0.9295 B( 22-C , 25-C ) :   1.0752 
B( 25-C , 26-H ) :   0.9594 B( 25-C , 27-H ) :   0.9487 B( 25-C , 28-C ) :   1.0730 
B( 28-C , 29-H ) :   0.9705 B( 28-C , 30-H ) :   0.9739 B( 28-C , 31-H ) :   0.9738 


-------
TIMINGS
-------

Total SCF time: 0 days 0 hours 0 min 27 sec 

Total time                  ....      27.822 sec
Sum of individual times     ....      26.929 sec  ( 96.8%)

Fock matrix formation       ....      25.107 sec  ( 90.2%)
  XC integration            ....       1.565 sec  (  6.2% of F)
    Basis function eval.    ....       0.207 sec  ( 13.2% of XC)
    Density eval.           ....       0.153 sec  (  9.8% of XC)
    XC-Functional eval.     ....       0.163 sec  ( 10.4% of XC)
    XC-Potential eval.      ....       0.195 sec  ( 12.5% of XC)
Diagonalization             ....       0.134 sec  (  0.5%)
Density matrix formation    ....       0.020 sec  (  0.1%)
Population analysis         ....       0.047 sec  (  0.2%)
Initial guess               ....       0.194 sec  (  0.7%)
Orbital Transformation      ....       0.000 sec  (  0.0%)
Orbital Orthonormalization  ....       0.000 sec  (  0.0%)
DIIS solution               ....       0.139 sec  (  0.5%)
SOSCF solution              ....       0.122 sec  (  0.4%)
Grid generation             ....       1.166 sec  (  4.2%)


-------------------------------------------------------------------------------
                          DFT DISPERSION CORRECTION                            
                                                                               
                              DFTD3 V3.1  Rev 1                                
                              USING zero damping                               
-------------------------------------------------------------------------------
The omegaB97X-D3 functional is recognized. Fit by Chai et al.
Active option DFTDOPT                   ...         3   

molecular C6(AA) [au] = 14114.592262 


            DFT-D V3
 parameters
 s6 scaling factor         :     1.0000 
 rs6 scaling factor        :     1.2810 
 s8 scaling factor         :     1.0000 
 rs8 scaling factor        :     1.0940 
 Damping factor alpha6     :    14.0000 
 Damping factor alpha8     :    16.0000 
 ad hoc parameters k1-k3   :    16.0000     1.3333    -4.0000 

 Edisp/kcal,au: -9.392414275898  -0.014967763296 
 E6   /kcal   :  -4.358267466 
 E8   /kcal   :  -5.034146809 
 % E8         :  53.598006451 

-------------------------   ----------------
Dispersion correction           -0.014967763
-------------------------   ----------------


-------------------------   --------------------
FINAL SINGLE POINT ENERGY     -1339.856413465842
-------------------------   --------------------


                            ***************************************
                            *     ORCA property calculations      *
                            ***************************************

                                    ---------------------
                                    Active property flags
                                    ---------------------
   (+) Dipole Moment


------------------------------------------------------------------------------
                       ORCA ELECTRIC PROPERTIES CALCULATION
------------------------------------------------------------------------------

Dipole Moment Calculation                       ... on
Quadrupole Moment Calculation                   ... off
Polarizability Calculation                      ... off
GBWName                                         ... config_6019.gbw
Electron density file                           ... config_6019.scfp
The origin for moment calculation is the CENTER OF MASS  = (-45.624667, -6.552773 186.259714)

-------------
DIPOLE MOMENT
-------------
                                X             Y             Z
Electronic contribution:     21.79265       6.78818     -18.97694
Nuclear contribution   :    -22.22154      -6.92540      19.38069
                        -----------------------------------------
Total Dipole Moment    :     -0.42890      -0.13722       0.40375
                        -----------------------------------------
Magnitude (a.u.)       :      0.60481
Magnitude (Debye)      :      1.53730



--------------------
Rotational spectrum 
--------------------
 
Rotational constants in cm-1:     0.017167     0.009854     0.007648 
Rotational constants in MHz :   514.668013   295.410730   229.293829 

 Dipole components along the rotational axes: 
x,y,z [a.u.] :     0.350653    -0.484179    -0.091684 
x,y,z [Debye]:     0.891288    -1.230685    -0.233043 

 

Timings for individual modules:

Sum of individual times         ...       28.914 sec (=   0.482 min)
GTO integral calculation        ...        0.753 sec (=   0.013 min)   2.6 %
SCF iterations                  ...       28.161 sec (=   0.469 min)  97.4 %
                             ****ORCA TERMINATED NORMALLY****
TOTAL RUN TIME: 0 days 0 hours 0 minutes 29 seconds 532 msec
