
                                 *****************
                                 * O   R   C   A *
                                 *****************

           --- An Ab Initio, DFT and Semiempirical electronic structure package ---

                  #######################################################
                  #                        -***-                        #
                  #          Department of theory and spectroscopy      #
                  #               Directorship: Frank Neese             #
                  #        Max Planck Institute fuer Kohlenforschung    #
                  #                Kaiser Wilhelm Platz 1               #
                  #                 D-45470 Muelheim/Ruhr               #
                  #                      Germany                        #
                  #                                                     #
                  #                  All rights reserved                #
                  #                        -***-                        #
                  #######################################################


                         Program Version 4.2.1 -  RELEASE  -


 With contributions from (in alphabetic order):
   Daniel Aravena         : Magnetic Suceptibility
   Michael Atanasov       : Ab Initio Ligand Field Theory (pilot matlab implementation)
   Alexander A. Auer      : GIAO ZORA, VPT2
   Ute Becker             : Parallelization
   Giovanni Bistoni       : ED, misc. LED, open-shell LED, HFLD
   Martin Brehm           : Molecular dynamics
   Dmytro Bykov           : SCF Hessian
   Vijay G. Chilkuri      : MRCI spin determinant printing, contributions to CSF-ICE
   Dipayan Datta          : RHF DLPNO-CCSD density
   Achintya Kumar Dutta   : EOM-CC, STEOM-CC
   Dmitry Ganyushin       : Spin-Orbit,Spin-Spin,Magnetic field MRCI
   Miquel Garcia          : C-PCM Hessian, Gaussian charge scheme
   Yang Guo               : DLPNO-NEVPT2, CIM, IAO-localization
   Andreas Hansen         : Spin unrestricted coupled pair/coupled cluster methods
   Benjamin Helmich-Paris : CASSCF linear response (MC-RPA)
   Lee Huntington         : MR-EOM, pCC
   Robert Izsak           : Overlap fitted RIJCOSX, COSX-SCS-MP3, EOM
   Christian Kollmar      : KDIIS, OOCD, Brueckner-CCSD(T), CCSD density
   Simone Kossmann        : Meta GGA functionals, TD-DFT gradient, OOMP2, MP2 Hessian
   Martin Krupicka        : AUTO-CI
   Lucas Lang             : DCDCAS
   Dagmar Lenk            : GEPOL surface, SMD
   Dimitrios Liakos       : Extrapolation schemes; Compound Job, initial MDCI parallelization
   Dimitrios Manganas     : Further ROCIS development; embedding schemes
   Dimitrios Pantazis     : SARC Basis sets
   Taras Petrenko         : DFT Hessian,TD-DFT gradient, ASA, ECA, R-Raman, ABS, FL, XAS/XES, NRVS
   Peter Pinski           : DLPNO-MP2, DLPNO-MP2 Gradient
   Christoph Reimann      : Effective Core Potentials
   Marius Retegan         : Local ZFS, SOC
   Christoph Riplinger    : Optimizer, TS searches, QM/MM, DLPNO-CCSD(T), (RO)-DLPNO pert. Triples
   Tobias Risthaus        : Range-separated hybrids, TD-DFT gradient, RPA, STAB
   Michael Roemelt        : Original ROCIS implementation
   Masaaki Saitow         : Open-shell DLPNO-CCSD energy and density
   Barbara Sandhoefer     : DKH picture change effects
   Avijit Sen             : IP-ROCIS
   Kantharuban Sivalingam : CASSCF convergence, NEVPT2, FIC-MRCI
   Bernardo de Souza      : ESD, SOC TD-DFT
   Georgi Stoychev        : AutoAux, RI-MP2 NMR
   Willem Van den Heuvel  : Paramagnetic NMR
   Boris Wezisla          : Elementary symmetry handling
   Frank Wennmohs         : Technical directorship


 We gratefully acknowledge several colleagues who have allowed us to
 interface, adapt or use parts of their codes:
   Stefan Grimme, W. Hujo, H. Kruse,             : VdW corrections, initial TS optimization,
                  C. Bannwarth                     DFT functionals, gCP, sTDA/sTD-DF
   Ed Valeev, F. Pavosevic, A. Kumar             : LibInt (2-el integral package), F12 methods
   Garnet Chan, S. Sharma, J. Yang, R. Olivares  : DMRG
   Ulf Ekstrom                                   : XCFun DFT Library
   Mihaly Kallay                                 : mrcc  (arbitrary order and MRCC methods)
   Andreas Klamt, Michael Diedenhofen            : otool_cosmo (COSMO solvation model)
   Jiri Pittner, Ondrej Demel                    : Mk-CCSD
   Frank Weinhold                                : gennbo (NPA and NBO analysis)
   Christopher J. Cramer and Donald G. Truhlar   : smd solvation model
   Lars Goerigk                                  : TD-DFT with DH, B97 family of functionals
   V. Asgeirsson, H. Jonsson                     : NEB implementation
   FAccTs GmbH                                   : IRC, NEB, NEB-TS, Multilevel, MM, QM/MM, CI optimization
   S Lehtola, MJT Oliveira, MAL Marques          : LibXC Library


 Your calculation uses the libint2 library for the computation of 2-el integrals
 For citations please refer to: http://libint.valeyev.net

 Your ORCA version has been built with support for libXC version: 4.2.3
 For citations please refer to: https://tddft.org/programs/libxc/

 This ORCA versions uses:
   CBLAS   interface :  Fast vector & matrix operations
   LAPACKE interface :  Fast linear algebra routines
   SCALAPACK package :  Parallel linear algebra routines


Your calculation utilizes the atom-pairwise dispersion correction
with the zero-damping scheme (D30)
Cite in your paper:
S.Grimme, J.Antony, S.Ehrlich and H.Krieg, J.Chem.Phys., 132, (2010), 154104 
   

XCFun DFT library Copyright 2009-2010 Ulf Ekstrom and contributors.
See http://admol.org/xcfun for more information. This is free soft-
ware; see the source code for copying conditions. There is ABSOLUTELY
NO WARRANTY; not even for MERCHANTABILITY or FITNESS FOR A PARTICULAR
PURPOSE. For details see the documentation. Scientific users of this 
library should cite U. Ekstrom, L. Visscher, R. Bast, A. J. Thorvald-
sen and K. Ruud; J.Chem.Theor.Comp. 2010, DOI: 10.1021/ct100117s
XCFun Version 0.99 
----- Orbital basis set information -----
Your calculation utilizes the basis: def2-SVP
   F. Weigend and R. Ahlrichs, Phys. Chem. Chem. Phys. 7, 3297 (2005).

================================================================================
                                        WARNINGS
                       Please study these warnings very carefully!
================================================================================


INFO   : the flag for use of LIBINT has been found!

================================================================================
                                       INPUT FILE
================================================================================
NAME = config_650.inp
|  1> ! wB97X-D3 SP def2-SVP
|  2> %pal
|  3> nprocs 16
|  4> end
|  5> 
|  6> * xyz 0 1
|  7> S 	 -14.6379 	 74.5752 	 57.6243 	 
|  8> C 	 -15.8969 	 73.7052 	 56.7249 	 
|  9> C 	 -15.2961 	 72.7759 	 55.8639 	 
| 10> C 	 -13.8808 	 72.7077 	 56.0109 	 
| 11> C 	 -13.3455 	 73.7621 	 56.7042 	 
| 12> H 	 -13.2705 	 72.108 	 55.4733 	 
| 13> C 	 -16.0178 	 71.9279 	 54.8634 	 
| 14> H 	 -16.8837 	 71.5825 	 55.3508 	 
| 15> H 	 -15.4804 	 71.0901 	 54.6723 	 
| 16> C 	 -16.5905 	 72.6855 	 53.6036 	 
| 17> H 	 -17.277 	 73.4901 	 53.9775 	 
| 18> H 	 -15.773 	 73.1386 	 53.001 	 
| 19> C 	 -17.4728 	 71.7801 	 52.7003 	 
| 20> H 	 -17.9247 	 72.4897 	 52.028 	 
| 21> H 	 -16.8147 	 71.0738 	 52.1506 	 
| 22> H 	 -18.3276 	 71.3542 	 53.2174 	 
| 23> S 	 -11.1805 	 73.7819 	 58.583 	 
| 24> C 	 -9.61693 	 73.9133 	 57.8823 	 
| 25> C 	 -9.65284 	 74.0506 	 56.5269 	 
| 26> C 	 -10.9373 	 74.1123 	 55.961 	 
| 27> C 	 -11.96 	 73.9272 	 56.9468 	 
| 28> H 	 -8.82255 	 74.2835 	 55.9819 	 
| 29> C 	 -11.1545 	 74.3312 	 54.4884 	 
| 30> H 	 -11.7925 	 73.5405 	 54.099 	 
| 31> H 	 -10.1964 	 74.1399 	 53.9444 	 
| 32> C 	 -11.638 	 75.723 	 54.0453 	 
| 33> H 	 -10.9377 	 76.4972 	 54.1465 	 
| 34> H 	 -12.48 	 75.851 	 54.721 	 
| 35> C 	 -12.2336 	 75.8401 	 52.6553 	 
| 36> H 	 -11.5672 	 75.3911 	 51.8886 	 
| 37> H 	 -12.2006 	 76.9089 	 52.4251 	 
| 38> H 	 -13.1762 	 75.399 	 52.5381 	 
| 39> H 	 -16.9692 	 73.8321 	 56.9936 	 
| 40> H 	 -8.67467 	 73.9125 	 58.4198 	 
| 41> *
| 42> 
| 43>                          ****END OF INPUT****
================================================================================

                       ****************************
                       * Single Point Calculation *
                       ****************************

---------------------------------
CARTESIAN COORDINATES (ANGSTROEM)
---------------------------------
  S    -14.637900   74.575200   57.624300
  C    -15.896900   73.705200   56.724900
  C    -15.296100   72.775900   55.863900
  C    -13.880800   72.707700   56.010900
  C    -13.345500   73.762100   56.704200
  H    -13.270500   72.108000   55.473300
  C    -16.017800   71.927900   54.863400
  H    -16.883700   71.582500   55.350800
  H    -15.480400   71.090100   54.672300
  C    -16.590500   72.685500   53.603600
  H    -17.277000   73.490100   53.977500
  H    -15.773000   73.138600   53.001000
  C    -17.472800   71.780100   52.700300
  H    -17.924700   72.489700   52.028000
  H    -16.814700   71.073800   52.150600
  H    -18.327600   71.354200   53.217400
  S    -11.180500   73.781900   58.583000
  C     -9.616930   73.913300   57.882300
  C     -9.652840   74.050600   56.526900
  C    -10.937300   74.112300   55.961000
  C    -11.960000   73.927200   56.946800
  H     -8.822550   74.283500   55.981900
  C    -11.154500   74.331200   54.488400
  H    -11.792500   73.540500   54.099000
  H    -10.196400   74.139900   53.944400
  C    -11.638000   75.723000   54.045300
  H    -10.937700   76.497200   54.146500
  H    -12.480000   75.851000   54.721000
  C    -12.233600   75.840100   52.655300
  H    -11.567200   75.391100   51.888600
  H    -12.200600   76.908900   52.425100
  H    -13.176200   75.399000   52.538100
  H    -16.969200   73.832100   56.993600
  H     -8.674670   73.912500   58.419800

----------------------------
CARTESIAN COORDINATES (A.U.)
----------------------------
  NO LB      ZA    FRAG     MASS         X           Y           Z
   0 S    16.0000    0    32.060  -27.661622  140.926704  108.894146
   1 C     6.0000    0    12.011  -30.040787  139.282643  107.194526
   2 C     6.0000    0    12.011  -28.905440  137.526520  105.567472
   3 C     6.0000    0    12.011  -26.230911  137.397641  105.845262
   4 C     6.0000    0    12.011  -25.219340  139.390168  107.155409
   5 H     1.0000    0     1.008  -25.077611  136.264372  104.829345
   6 C     6.0000    0    12.011  -30.269255  135.924032  103.676801
   7 H     1.0000    0     1.008  -31.905569  135.271321  104.597853
   8 H     1.0000    0     1.008  -29.253716  134.340820  103.315674
   9 C     6.0000    0    12.011  -31.351501  137.355689  101.296124
  10 H     1.0000    0     1.008  -32.648798  138.876163  102.002692
  11 H     1.0000    0     1.008  -29.806650  138.211924  100.157375
  12 C     6.0000    0    12.011  -33.018807  135.644731   99.589134
  13 H     1.0000    0     1.008  -33.872774  136.985681   98.318671
  14 H     1.0000    0     1.008  -31.775178  134.310017   98.550352
  15 H     1.0000    0     1.008  -34.634145  134.839897  100.566312
  16 S    16.0000    0    32.060  -21.128083  139.427585  110.705826
  17 C     6.0000    0    12.011  -18.173364  139.675895  109.381695
  18 C     6.0000    0    12.011  -18.241224  139.935354  106.820360
  19 C     6.0000    0    12.011  -20.668502  140.051950  105.750964
  20 C     6.0000    0    12.011  -22.601125  139.702162  107.613856
  21 H     1.0000    0     1.008  -16.672203  140.375471  105.790459
  22 C     6.0000    0    12.011  -21.078950  140.465611  102.968153
  23 H     1.0000    0     1.008  -22.284595  138.971405  102.232294
  24 H     1.0000    0     1.008  -19.268404  140.104107  101.940142
  25 C     6.0000    0    12.011  -21.992633  143.095732  102.130816
  26 H     1.0000    0     1.008  -20.669258  144.558758  102.322056
  27 H     1.0000    0     1.008  -23.583782  143.337617  103.407704
  28 C     6.0000    0    12.011  -23.118154  143.317019   99.504096
  29 H     1.0000    0     1.008  -21.858840  142.468532   98.055243
  30 H     1.0000    0     1.008  -23.055793  145.336758   99.069082
  31 H     1.0000    0     1.008  -24.899409  142.483461   99.282621
  32 H     1.0000    0     1.008  -32.067141  139.522449  107.702295
  33 H     1.0000    0     1.008  -16.392751  139.674383  110.397423

--------------------------------
INTERNAL COORDINATES (ANGSTROEM)
--------------------------------
 S      0   0   0     0.000000000000     0.00000000     0.00000000
 C      1   0   0     1.775077846180     0.00000000     0.00000000
 C      2   1   0     1.402098473717   109.39446710     0.00000000
 C      3   2   1     1.424547061350   113.20878749     4.41931122
 C      4   3   2     1.370755390287   113.78749261   344.91877350
 H      4   3   2     1.010504794645   124.99805527   180.77335906
 C      3   2   1     1.496982010580   125.40056622   185.07643193
 H      7   3   2     1.051970878875   105.85270306   317.47108786
 H      7   3   2     1.013521982988   109.79466228   205.07219432
 C      7   3   2     1.577668878441   115.89162896    71.19113022
 H     10   7   3     1.121813094949   107.48235827   302.83054829
 H     10   7   3     1.112084807917   111.19197577    62.99250864
 C     10   7   3     1.553754594523   112.98822576   187.07571869
 H     13  10   7     1.076909030513   102.54805616   169.10503602
 H     13  10   7     1.110911963209   108.76944579   286.72839008
 H     13  10   7     1.086032347585   113.49419550    58.70917075
 S      5   4   3     2.866619346896   129.17848329   142.51152943
 C     17   5   4     1.718428815779   114.86408733    85.29267587
 C     18  17   5     1.362809589818   112.90892989     2.83359776
 C     19  18  17     1.404950957009   115.41137735     2.37294764
 C      5   4   3     1.416235510076   123.94184978   181.59354020
 H     19  18  17     1.020121999616   122.20159662   170.35840901
 C     20  19  18     1.504541062916   122.18199630   176.90455434
 H     23  20  19     1.088063807872   109.22049785   126.28650368
 H     23  20  19     1.118251894700   109.12125804    15.83017244
 C     23  20  19     1.538576322449   117.31350388   254.68396564
 H     26  23  20     1.048831335344   115.47545551    69.50819136
 H     26  23  20     1.087160747084    99.83993396   309.58181923
 C     26  23  20     1.516756991083   117.20431886   197.14194606
 H     29  26  23     1.110638937729   111.45725498   309.15810196
 H     29  26  23     1.093807332212   104.86019652   197.94757145
 H     29  26  23     1.047282106216   115.05375102    71.20891188
 H      2   1   3     1.112713166094   120.34822242   171.28133605
 H     18  17   5     1.084786060751   126.03235173   181.65133673

---------------------------
INTERNAL COORDINATES (A.U.)
---------------------------
 S      0   0   0     0.000000000000     0.00000000     0.00000000
 C      1   0   0     3.354410995672     0.00000000     0.00000000
 C      2   1   0     2.649582128114   109.39446710     0.00000000
 C      3   2   1     2.692003810833   113.20878749     4.41931122
 C      4   3   2     2.590352284238   113.78749261   344.91877350
 H      4   3   2     1.909577318893   124.99805527   180.77335906
 C      3   2   1     2.828886027403   125.40056622   185.07643193
 H      7   3   2     1.987936861933   105.85270306   317.47108786
 H      7   3   2     1.915278978556   109.79466228   205.07219432
 C      7   3   2     2.981362110263   115.89162896    71.19113022
 H     10   7   3     2.119919522901   107.48235827   302.83054829
 H     10   7   3     2.101535724658   111.19197577    62.99250864
 C     10   7   3     2.936170662970   112.98822576   187.07571869
 H     13  10   7     2.035063138816   102.54805616   169.10503602
 H     13  10   7     2.099319369361   108.76944579   286.72839008
 H     13  10   7     2.052303709514   113.49419550    58.70917075
 S      5   4   3     5.417125495834   129.17848329   142.51152943
 C     17   5   4     3.247359842461   114.86408733    85.29267587
 C     18  17   5     2.575336897438   112.90892989     2.83359776
 C     19  18  17     2.654972540337   115.41137735     2.37294764
 C      5   4   3     2.676297255178   123.94184978   181.59354020
 H     19  18  17     1.927751202462   122.20159662   170.35840901
 C     20  19  18     2.843170566150   122.18199630   176.90455434
 H     23  20  19     2.056142613109   109.22049785   126.28650368
 H     23  20  19     2.113189829721   109.12125804    15.83017244
 C     23  20  19     2.907487885564   117.31350388   254.68396564
 H     26  23  20     1.982003984476   115.47545551    69.50819136
 H     26  23  20     2.054436075538    99.83993396   309.58181923
 C     26  23  20     2.866255324858   117.20431886   197.14194606
 H     29  26  23     2.098803425977   111.45725498   309.15810196
 H     29  26  23     2.066996301155   104.86019652   197.94757145
 H     29  26  23     1.979076365704   115.05375102    71.20891188
 H      2   1   3     2.102723149527   120.34822242   171.28133605
 H     18  17   5     2.049948568715   126.03235173   181.65133673

---------------------
BASIS SET INFORMATION
---------------------
There are 3 groups of distinct atoms

 Group   1 Type S   : 10s7p1d contracted to 4s3p1d pattern {5311/511/1}
 Group   2 Type C   : 7s4p1d contracted to 3s2p1d pattern {511/31/1}
 Group   3 Type H   : 4s1p contracted to 2s1p pattern {31/1}

Atom   0S    basis set group =>   1
Atom   1C    basis set group =>   2
Atom   2C    basis set group =>   2
Atom   3C    basis set group =>   2
Atom   4C    basis set group =>   2
Atom   5H    basis set group =>   3
Atom   6C    basis set group =>   2
Atom   7H    basis set group =>   3
Atom   8H    basis set group =>   3
Atom   9C    basis set group =>   2
Atom  10H    basis set group =>   3
Atom  11H    basis set group =>   3
Atom  12C    basis set group =>   2
Atom  13H    basis set group =>   3
Atom  14H    basis set group =>   3
Atom  15H    basis set group =>   3
Atom  16S    basis set group =>   1
Atom  17C    basis set group =>   2
Atom  18C    basis set group =>   2
Atom  19C    basis set group =>   2
Atom  20C    basis set group =>   2
Atom  21H    basis set group =>   3
Atom  22C    basis set group =>   2
Atom  23H    basis set group =>   3
Atom  24H    basis set group =>   3
Atom  25C    basis set group =>   2
Atom  26H    basis set group =>   3
Atom  27H    basis set group =>   3
Atom  28C    basis set group =>   2
Atom  29H    basis set group =>   3
Atom  30H    basis set group =>   3
Atom  31H    basis set group =>   3
Atom  32H    basis set group =>   3
Atom  33H    basis set group =>   3


           ************************************************************
           *        Program running with 16 parallel MPI-processes    *
           *              working on a common directory               *
           ************************************************************
------------------------------------------------------------------------------
                           ORCA GTO INTEGRAL CALCULATION
------------------------------------------------------------------------------

                         BASIS SET STATISTICS AND STARTUP INFO

 # of primitive gaussian shells          ...  294
 # of primitive gaussian functions       ...  534
 # of contracted shells                  ...  154
 # of contracted basis functions         ...  322
 Highest angular momentum                ...    2
 Maximum contraction depth               ...    5
 Integral package used                   ... LIBINT
 Integral threshhold            Thresh   ...  1.000e-10
 Primitive cut-off              TCut     ...  1.000e-11


------------------------------ INTEGRAL EVALUATION ----------------------------


 * One electron integrals 
 Pre-screening matrix                    ... done
 Shell pair data                         ... done (   0.003 sec)



           ************************************************************
           *        Program running with 16 parallel MPI-processes    *
           *              working on a common directory               *
           ************************************************************
-------------------------------------------------------------------------------
                                 ORCA SCF
-------------------------------------------------------------------------------

------------
SCF SETTINGS
------------
Hamiltonian:
 Density Functional     Method          .... DFT(GTOs)
 Exchange Functional    Exchange        .... WB97X-D3
 Correlation Functional Correlation     .... WB97X-D3
 Gradients option       PostSCFGGA      .... off
 Hybrid DFT is turned on
   Fraction HF Exchange ScalHFX         ....  0.195728
   Scaling of DF-GGA-X  ScalDFX         ....  0.000000
   Scaling of DF-GGA-C  ScalDFC         ....  1.000000
   Scaling of DF-LDA-C  ScalLDAC        ....  1.000000
   Perturbative correction              ....  0.000000
   Density functional embedding theory  .... OFF
 Long-range corrected/Screened/Range-Separated Hybrid DFT is turned on
   Amount of maximum screened exact exchange              ....  0.804272
   Range separation parameter mu (erf(mu*r12)/r12)        ....  0.250000


General Settings:
 Integral files         IntName         .... config_650
 Hartree-Fock type      HFTyp           .... RHF
 Total Charge           Charge          ....    0
 Multiplicity           Mult            ....    1
 Number of Electrons    NEL             ....  134
 Basis Dimension        Dim             ....  322
 Nuclear Repulsion      ENuc            ....   1279.6914320723 Eh

Convergence Acceleration:
 DIIS                   CNVDIIS         .... on
   Start iteration      DIISMaxIt       ....    12
   Startup error        DIISStart       ....  0.200000
   # of expansion vecs  DIISMaxEq       ....     5
   Bias factor          DIISBfac        ....   1.050
   Max. coefficient     DIISMaxC        ....  10.000
 Newton-Raphson         CNVNR           .... off
 SOSCF                  CNVSOSCF        .... on
   Start iteration      SOSCFMaxIt      ....   150
   Startup grad/error   SOSCFStart      ....  0.003300
 Level Shifting         CNVShift        .... on
   Level shift para.    LevelShift      ....    0.2500
   Turn off err/grad.   ShiftErr        ....    0.0010
 Zerner damping         CNVZerner       .... off
 Static damping         CNVDamp         .... on
   Fraction old density DampFac         ....    0.7000
   Max. Damping (<1)    DampMax         ....    0.9800
   Min. Damping (>=0)   DampMin         ....    0.0000
   Turn off err/grad.   DampErr         ....    0.1000
 Fernandez-Rico         CNVRico         .... off

SCF Procedure:
 Maximum # iterations   MaxIter         ....   125
 SCF integral mode      SCFMode         .... Direct
   Integral package                     .... LIBINT
 Reset frequency        DirectResetFreq ....    20
 Integral Threshold     Thresh          ....  1.000e-10 Eh
 Primitive CutOff       TCut            ....  1.000e-11 Eh

Convergence Tolerance:
 Convergence Check Mode ConvCheckMode   .... Total+1el-Energy
 Convergence forced     ConvForced      .... 0
 Energy Change          TolE            ....  1.000e-06 Eh
 1-El. energy change                    ....  1.000e-03 Eh
 Orbital Gradient       TolG            ....  5.000e-05
 Orbital Rotation angle TolX            ....  5.000e-05
 DIIS Error             TolErr          ....  1.000e-06


Diagonalization of the overlap matrix:
Smallest eigenvalue                        ... 6.667e-04
Time for diagonalization                   ...    0.020 sec
Threshold for overlap eigenvalues          ... 1.000e-08
Number of eigenvalues below threshold      ... 0
Time for construction of square roots      ...    0.031 sec
Total time needed                          ...    0.053 sec

-------------------
DFT GRID GENERATION
-------------------

General Integration Accuracy     IntAcc      ...  4.340
Radial Grid Type                 RadialGrid  ... Gauss-Chebyshev
Angular Grid (max. acc.)         AngularGrid ... Lebedev-110
Angular grid pruning method      GridPruning ... 3 (G Style)
Weight generation scheme         WeightScheme... Becke
Basis function cutoff            BFCut       ...    1.0000e-10
Integration weight cutoff        WCut        ...    1.0000e-14
Grids for H and He will be reduced by one unit

# of grid points (after initial pruning)     ...  41088 (   0.0 sec)
# of grid points (after weights+screening)   ...  36988 (   0.0 sec)
nearest neighbour list constructed           ...    0.0 sec
Grid point re-assignment to atoms done       ...    0.0 sec
Grid point division into batches done        ...    0.0 sec
Reduced shell lists constructed in    0.1 sec

Total number of grid points                  ...    36988
Total number of batches                      ...      598
Average number of points per batch           ...       61
Average number of grid points per atom       ...     1088
Average number of shells per batch           ...    77.26 (50.17%)
Average number of basis functions per batch  ...   152.03 (47.21%)
Average number of large shells per batch     ...    49.28 (63.79%)
Average number of large basis fcns per batch ...   101.13 (66.52%)
Maximum spatial batch extension              ...  12.20, 18.69, 22.24 au
Average spatial batch extension              ...   0.19,  0.25,  0.27 au

Time for grid setup =    0.278 sec

------------------------------
INITIAL GUESS: MODEL POTENTIAL
------------------------------
Loading Hartree-Fock densities                     ... done
Calculating cut-offs                               ... done
Setting up the integral package                    ... done
Initializing the effective Hamiltonian             ... done
Starting the Coulomb interaction                   ... done (   0.0 sec)
Reading the grid                                   ... done
Mapping shells                                     ... done
Starting the XC term evaluation                    ... done (   0.0 sec)
  promolecular density results
     # of electrons  =    133.977589007
     EX              =   -126.741197536
     EC              =     -4.617342262
     EX+EC           =   -131.358539798
Transforming the Hamiltonian                       ... done (   0.0 sec)
Diagonalizing the Hamiltonian                      ... done (   0.0 sec)
Back transforming the eigenvectors                 ... done (   0.0 sec)
Now organizing SCF variables                       ... done
                      ------------------
                      INITIAL GUESS DONE (   0.5 sec)
                      ------------------
--------------
SCF ITERATIONS
--------------
ITER       Energy         Delta-E        Max-DP      RMS-DP      [F,P]     Damp
               ***  Starting incremental Fock matrix formation  ***
  0  -1339.3806668971   0.000000000000 0.06590408  0.00164056  0.1660254 0.7000
  1  -1339.5791198537  -0.198452956643 0.04428255  0.00119086  0.1006378 0.7000
                               ***Turning on DIIS***
  2  -1339.6750460924  -0.095926238649 0.09849799  0.00221683  0.0524039 0.0000
  3  -1339.8190883123  -0.144042219883 0.04612956  0.00105885  0.0425645 0.0000
  4  -1339.8508086053  -0.031720292982 0.00797101  0.00021923  0.0078601 0.0000
                      *** Initiating the SOSCF procedure ***
                           *** Shutting down DIIS ***
                      *** Re-Reading the Fockian *** 
                      *** Removing any level shift *** 
ITER      Energy       Delta-E        Grad      Rot      Max-DP    RMS-DP
  5  -1339.85182622  -0.0010176143  0.001509  0.001509  0.003333  0.000113
               *** Restarting incremental Fock matrix formation ***
  6  -1339.85204108  -0.0002148555  0.001273  0.003689  0.003153  0.000070
  7  -1339.85211518  -0.0000741099  0.000698  0.004457  0.003988  0.000067
  8  -1339.85213619  -0.0000210036  0.000220  0.000457  0.000786  0.000017
  9  -1339.85213998  -0.0000037924  0.000060  0.000190  0.000255  0.000006
                 **** Energy Check signals convergence ****
              ***Rediagonalizing the Fockian in SOSCF/NRSCF***

               *****************************************************
               *                     SUCCESS                       *
               *           SCF CONVERGED AFTER  10 CYCLES          *
               *****************************************************

Setting up the final grid:

General Integration Accuracy     IntAcc      ...  4.670
Radial Grid Type                 RadialGrid  ... Gauss-Chebyshev
Angular Grid (max. acc.)         AngularGrid ... Lebedev-302
Angular grid pruning method      GridPruning ... 3 (G Style)
Weight generation scheme         WeightScheme... Becke
Basis function cutoff            BFCut       ...    1.0000e-10
Integration weight cutoff        WCut        ...    1.0000e-14
Grids for H and He will be reduced by one unit

# of grid points (after initial pruning)     ... 161752 (   0.0 sec)
# of grid points (after weights+screening)   ... 142790 (   0.2 sec)
nearest neighbour list constructed           ...    0.0 sec
Grid point re-assignment to atoms done       ...    0.0 sec
Grid point division into batches done        ...    0.5 sec
Reduced shell lists constructed in    0.6 sec

Total number of grid points                  ...   142790
Total number of batches                      ...     2251
Average number of points per batch           ...       63
Average number of grid points per atom       ...     4200
Average number of shells per batch           ...    71.02 (46.12%)
Average number of basis functions per batch  ...   139.19 (43.23%)
Average number of large shells per batch     ...    43.78 (61.65%)
Average number of large basis fcns per batch ...    88.99 (63.94%)
Maximum spatial batch extension              ...  13.81, 16.13, 12.76 au
Average spatial batch extension              ...   0.14,  0.16,  0.14 au

Final grid set up in    1.0 sec
Final integration                            ... done (   0.4 sec)
Change in XC energy                          ...     0.007141720
Integrated number of electrons               ...   133.999738050
Previous integrated no of electrons          ...   133.995019779

----------------
TOTAL SCF ENERGY
----------------

Total Energy       :        -1339.84499840 Eh          -36459.03595 eV

Components:
Nuclear Repulsion  :         1279.69143207 Eh           34822.17419 eV
Electronic Energy  :        -2619.53643047 Eh          -71281.21014 eV
One Electron Energy:        -4375.99916971 Eh         -119076.99116 eV
Two Electron Energy:         1756.46273923 Eh           47795.78103 eV

Virial components:
Potential Energy   :        -2671.65517503 Eh          -72699.43328 eV
Kinetic Energy     :         1331.81017663 Eh           36240.39733 eV
Virial Ratio       :            2.00603301


DFT components:
N(Alpha)           :       66.999869024834 electrons
N(Beta)            :       66.999869024834 electrons
N(Total)           :      133.999738049668 electrons
E(XC)              :      -94.308874066078 Eh       
DFET-embed. en.    :        0.000000000000 Eh       

---------------
SCF CONVERGENCE
---------------

  Last Energy change         ...   -1.3915e-07  Tolerance :   1.0000e-06
  Last MAX-Density change    ...    8.7706e-05  Tolerance :   1.0000e-05
  Last RMS-Density change    ...    2.4519e-06  Tolerance :   1.0000e-06
  Last Orbital Gradient      ...    5.9453e-05  Tolerance :   5.0000e-05
  Last Orbital Rotation      ...    9.8986e-05  Tolerance :   5.0000e-05

             **** THE GBW FILE WAS UPDATED (config_650.gbw) ****
             **** DENSITY FILE WAS UPDATED (config_650.scfp) ****
             **** ENERGY FILE WAS UPDATED (config_650.en.tmp) ****
             **** THE GBW FILE WAS UPDATED (config_650.gbw) ****
             **** DENSITY FILE WAS UPDATED (config_650.scfp) ****
----------------
ORBITAL ENERGIES
----------------

  NO   OCC          E(Eh)            E(eV) 
   0   2.0000     -88.968419     -2420.9538 
   1   2.0000     -88.963521     -2420.8205 
   2   2.0000     -10.328577      -281.0549 
   3   2.0000     -10.326354      -280.9944 
   4   2.0000     -10.321110      -280.8517 
   5   2.0000     -10.314121      -280.6615 
   6   2.0000     -10.303247      -280.3656 
   7   2.0000     -10.301912      -280.3293 
   8   2.0000     -10.297011      -280.1959 
   9   2.0000     -10.291280      -280.0400 
  10   2.0000     -10.285469      -279.8818 
  11   2.0000     -10.281991      -279.7872 
  12   2.0000     -10.280128      -279.7365 
  13   2.0000     -10.279729      -279.7256 
  14   2.0000     -10.276471      -279.6370 
  15   2.0000     -10.272185      -279.5204 
  16   2.0000      -8.082423      -219.9339 
  17   2.0000      -8.077534      -219.8009 
  18   2.0000      -6.040941      -164.3824 
  19   2.0000      -6.037013      -164.2755 
  20   2.0000      -6.036143      -164.2518 
  21   2.0000      -6.033235      -164.1727 
  22   2.0000      -6.032107      -164.1420 
  23   2.0000      -6.028283      -164.0379 
  24   2.0000      -1.002208       -27.2715 
  25   2.0000      -0.980319       -26.6758 
  26   2.0000      -0.909901       -24.7597 
  27   2.0000      -0.908494       -24.7214 
  28   2.0000      -0.870641       -23.6914 
  29   2.0000      -0.855838       -23.2885 
  30   2.0000      -0.849116       -23.1056 
  31   2.0000      -0.814574       -22.1657 
  32   2.0000      -0.786206       -21.3937 
  33   2.0000      -0.767656       -20.8890 
  34   2.0000      -0.708877       -19.2895 
  35   2.0000      -0.699141       -19.0246 
  36   2.0000      -0.691143       -18.8070 
  37   2.0000      -0.661707       -18.0060 
  38   2.0000      -0.646901       -17.6031 
  39   2.0000      -0.620558       -16.8862 
  40   2.0000      -0.598156       -16.2767 
  41   2.0000      -0.574106       -15.6222 
  42   2.0000      -0.572362       -15.5748 
  43   2.0000      -0.556883       -15.1535 
  44   2.0000      -0.528490       -14.3809 
  45   2.0000      -0.522779       -14.2255 
  46   2.0000      -0.515634       -14.0311 
  47   2.0000      -0.513833       -13.9821 
  48   2.0000      -0.507016       -13.7966 
  49   2.0000      -0.502838       -13.6829 
  50   2.0000      -0.495683       -13.4882 
  51   2.0000      -0.481542       -13.1034 
  52   2.0000      -0.477717       -12.9993 
  53   2.0000      -0.462051       -12.5731 
  54   2.0000      -0.461161       -12.5488 
  55   2.0000      -0.446445       -12.1484 
  56   2.0000      -0.442134       -12.0311 
  57   2.0000      -0.434487       -11.8230 
  58   2.0000      -0.431651       -11.7458 
  59   2.0000      -0.430776       -11.7220 
  60   2.0000      -0.423629       -11.5275 
  61   2.0000      -0.418237       -11.3808 
  62   2.0000      -0.403423       -10.9777 
  63   2.0000      -0.342448        -9.3185 
  64   2.0000      -0.333746        -9.0817 
  65   2.0000      -0.323197        -8.7946 
  66   2.0000      -0.289598        -7.8804 
  67   0.0000       0.022159         0.6030 
  68   0.0000       0.061803         1.6817 
  69   0.0000       0.113253         3.0818 
  70   0.0000       0.120406         3.2764 
  71   0.0000       0.127784         3.4772 
  72   0.0000       0.142236         3.8704 
  73   0.0000       0.144658         3.9363 
  74   0.0000       0.148933         4.0527 
  75   0.0000       0.167958         4.5704 
  76   0.0000       0.172497         4.6939 
  77   0.0000       0.173643         4.7251 
  78   0.0000       0.182247         4.9592 
  79   0.0000       0.195262         5.3133 
  80   0.0000       0.202712         5.5161 
  81   0.0000       0.206347         5.6150 
  82   0.0000       0.209281         5.6948 
  83   0.0000       0.214862         5.8467 
  84   0.0000       0.219581         5.9751 
  85   0.0000       0.226846         6.1728 
  86   0.0000       0.238538         6.4910 
  87   0.0000       0.240150         6.5348 
  88   0.0000       0.251072         6.8320 
  89   0.0000       0.257103         6.9961 
  90   0.0000       0.259467         7.0604 
  91   0.0000       0.277813         7.5597 
  92   0.0000       0.293183         7.9779 
  93   0.0000       0.306177         8.3315 
  94   0.0000       0.309573         8.4239 
  95   0.0000       0.315738         8.5917 
  96   0.0000       0.324276         8.8240 
  97   0.0000       0.332379         9.0445 
  98   0.0000       0.345251         9.3948 
  99   0.0000       0.370863        10.0917 
 100   0.0000       0.390553        10.6275 
 101   0.0000       0.403951        10.9921 
 102   0.0000       0.417973        11.3736 
 103   0.0000       0.433894        11.8068 
 104   0.0000       0.441187        12.0053 
 105   0.0000       0.455017        12.3816 
 106   0.0000       0.461324        12.5533 
 107   0.0000       0.486141        13.2286 
 108   0.0000       0.489888        13.3305 
 109   0.0000       0.495816        13.4918 
 110   0.0000       0.502644        13.6776 
 111   0.0000       0.510687        13.8965 
 112   0.0000       0.522832        14.2270 
 113   0.0000       0.526125        14.3166 
 114   0.0000       0.531044        14.4504 
 115   0.0000       0.533495        14.5171 
 116   0.0000       0.540136        14.6978 
 117   0.0000       0.554911        15.0999 
 118   0.0000       0.559963        15.2374 
 119   0.0000       0.573095        15.5947 
 120   0.0000       0.581290        15.8177 
 121   0.0000       0.591426        16.0935 
 122   0.0000       0.598375        16.2826 
 123   0.0000       0.606790        16.5116 
 124   0.0000       0.615234        16.7414 
 125   0.0000       0.617660        16.8074 
 126   0.0000       0.637005        17.3338 
 127   0.0000       0.641734        17.4625 
 128   0.0000       0.645544        17.5662 
 129   0.0000       0.658291        17.9130 
 130   0.0000       0.666890        18.1470 
 131   0.0000       0.673932        18.3386 
 132   0.0000       0.694839        18.9075 
 133   0.0000       0.703152        19.1337 
 134   0.0000       0.708590        19.2817 
 135   0.0000       0.719095        19.5676 
 136   0.0000       0.721052        19.6208 
 137   0.0000       0.725017        19.7287 
 138   0.0000       0.734224        19.9793 
 139   0.0000       0.741520        20.1778 
 140   0.0000       0.742367        20.2008 
 141   0.0000       0.746598        20.3160 
 142   0.0000       0.752212        20.4687 
 143   0.0000       0.758685        20.6449 
 144   0.0000       0.760881        20.7046 
 145   0.0000       0.770603        20.9692 
 146   0.0000       0.775296        21.0969 
 147   0.0000       0.775892        21.1131 
 148   0.0000       0.779395        21.2084 
 149   0.0000       0.785369        21.3710 
 150   0.0000       0.788688        21.4613 
 151   0.0000       0.798171        21.7193 
 152   0.0000       0.799287        21.7497 
 153   0.0000       0.801279        21.8039 
 154   0.0000       0.806309        21.9408 
 155   0.0000       0.807783        21.9809 
 156   0.0000       0.813108        22.1258 
 157   0.0000       0.817055        22.2332 
 158   0.0000       0.821628        22.3576 
 159   0.0000       0.829253        22.5651 
 160   0.0000       0.840379        22.8679 
 161   0.0000       0.843793        22.9608 
 162   0.0000       0.844456        22.9788 
 163   0.0000       0.851824        23.1793 
 164   0.0000       0.858349        23.3569 
 165   0.0000       0.877374        23.8746 
 166   0.0000       0.883301        24.0359 
 167   0.0000       0.890174        24.2229 
 168   0.0000       0.897176        24.4134 
 169   0.0000       0.910745        24.7826 
 170   0.0000       0.913793        24.8656 
 171   0.0000       0.916229        24.9319 
 172   0.0000       0.927704        25.2441 
 173   0.0000       0.941563        25.6212 
 174   0.0000       0.947526        25.7835 
 175   0.0000       0.970654        26.4128 
 176   0.0000       0.989559        26.9273 
 177   0.0000       1.016085        27.6491 
 178   0.0000       1.029081        28.0027 
 179   0.0000       1.041743        28.3473 
 180   0.0000       1.055017        28.7085 
 181   0.0000       1.068662        29.0798 
 182   0.0000       1.085531        29.5388 
 183   0.0000       1.092562        29.7301 
 184   0.0000       1.107987        30.1498 
 185   0.0000       1.121871        30.5277 
 186   0.0000       1.133025        30.8312 
 187   0.0000       1.136327        30.9210 
 188   0.0000       1.158544        31.5256 
 189   0.0000       1.187818        32.3222 
 190   0.0000       1.208194        32.8766 
 191   0.0000       1.217078        33.1184 
 192   0.0000       1.236823        33.6557 
 193   0.0000       1.269132        34.5348 
 194   0.0000       1.283117        34.9154 
 195   0.0000       1.288917        35.0732 
 196   0.0000       1.323975        36.0272 
 197   0.0000       1.327614        36.1262 
 198   0.0000       1.358979        36.9797 
 199   0.0000       1.376595        37.4591 
 200   0.0000       1.390398        37.8346 
 201   0.0000       1.406992        38.2862 
 202   0.0000       1.439668        39.1754 
 203   0.0000       1.455784        39.6139 
 204   0.0000       1.460091        39.7311 
 205   0.0000       1.479793        40.2672 
 206   0.0000       1.481739        40.3202 
 207   0.0000       1.493925        40.6518 
 208   0.0000       1.525634        41.5146 
 209   0.0000       1.561075        42.4790 
 210   0.0000       1.588545        43.2265 
 211   0.0000       1.607441        43.7407 
 212   0.0000       1.619440        44.0672 
 213   0.0000       1.630834        44.3773 
 214   0.0000       1.645339        44.7719 
 215   0.0000       1.666494        45.3476 
 216   0.0000       1.670925        45.4682 
 217   0.0000       1.702039        46.3148 
 218   0.0000       1.768297        48.1178 
 219   0.0000       1.784642        48.5626 
 220   0.0000       1.791104        48.7384 
 221   0.0000       1.798432        48.9378 
 222   0.0000       1.811716        49.2993 
 223   0.0000       1.819233        49.5038 
 224   0.0000       1.826358        49.6977 
 225   0.0000       1.841989        50.1231 
 226   0.0000       1.845641        50.2224 
 227   0.0000       1.849494        50.3273 
 228   0.0000       1.853412        50.4339 
 229   0.0000       1.864790        50.7435 
 230   0.0000       1.878674        51.1213 
 231   0.0000       1.879290        51.1381 
 232   0.0000       1.887490        51.3612 
 233   0.0000       1.892121        51.4872 
 234   0.0000       1.898314        51.6557 
 235   0.0000       1.912719        52.0477 
 236   0.0000       1.921223        52.2791 
 237   0.0000       1.929652        52.5085 
 238   0.0000       1.939533        52.7774 
 239   0.0000       1.944197        52.9043 
 240   0.0000       1.947285        52.9883 
 241   0.0000       1.957079        53.2548 
 242   0.0000       1.964940        53.4687 
 243   0.0000       1.971200        53.6391 
 244   0.0000       1.990121        54.1539 
 245   0.0000       1.995589        54.3027 
 246   0.0000       2.001077        54.4521 
 247   0.0000       2.004335        54.5407 
 248   0.0000       2.024027        55.0766 
 249   0.0000       2.031888        55.2905 
 250   0.0000       2.044372        55.6302 
 251   0.0000       2.054610        55.9088 
 252   0.0000       2.071562        56.3701 
 253   0.0000       2.089736        56.8646 
 254   0.0000       2.094098        56.9833 
 255   0.0000       2.116951        57.6052 
 256   0.0000       2.127429        57.8903 
 257   0.0000       2.144680        58.3597 
 258   0.0000       2.156303        58.6760 
 259   0.0000       2.163581        58.8740 
 260   0.0000       2.169915        59.0464 
 261   0.0000       2.186639        59.5015 
 262   0.0000       2.208724        60.1024 
 263   0.0000       2.210210        60.1429 
 264   0.0000       2.235562        60.8327 
 265   0.0000       2.245916        61.1145 
 266   0.0000       2.279283        62.0224 
 267   0.0000       2.301606        62.6299 
 268   0.0000       2.314800        62.9889 
 269   0.0000       2.333444        63.4962 
 270   0.0000       2.341177        63.7067 
 271   0.0000       2.356599        64.1263 
 272   0.0000       2.397610        65.2423 
 273   0.0000       2.401931        65.3599 
 274   0.0000       2.411114        65.6098 
 275   0.0000       2.431204        66.1564 
 276   0.0000       2.448243        66.6201 
 277   0.0000       2.457169        66.8630 
 278   0.0000       2.471110        67.2423 
 279   0.0000       2.480797        67.5059 
 280   0.0000       2.488987        67.7288 
 281   0.0000       2.504582        68.1531 
 282   0.0000       2.527425        68.7747 
 283   0.0000       2.538007        69.0627 
 284   0.0000       2.547314        69.3159 
 285   0.0000       2.562910        69.7403 
 286   0.0000       2.587208        70.4015 
 287   0.0000       2.596675        70.6591 
 288   0.0000       2.611555        71.0640 
 289   0.0000       2.622521        71.3624 
 290   0.0000       2.645014        71.9745 
 291   0.0000       2.666677        72.5640 
 292   0.0000       2.710169        73.7475 
 293   0.0000       2.714989        73.8786 
 294   0.0000       2.732873        74.3653 
 295   0.0000       2.754347        74.9496 
 296   0.0000       2.790894        75.9441 
 297   0.0000       2.804103        76.3035 
 298   0.0000       2.840649        77.2980 
 299   0.0000       2.862080        77.8811 
 300   0.0000       2.867309        78.0234 
 301   0.0000       2.901422        78.9517 
 302   0.0000       2.920879        79.4812 
 303   0.0000       2.928907        79.6996 
 304   0.0000       2.972486        80.8854 
 305   0.0000       2.980898        81.1144 
 306   0.0000       3.001517        81.6754 
 307   0.0000       3.014694        82.0340 
 308   0.0000       3.033514        82.5461 
 309   0.0000       3.057179        83.1901 
 310   0.0000       3.084027        83.9206 
 311   0.0000       3.104118        84.4673 
 312   0.0000       3.118236        84.8515 
 313   0.0000       3.126260        85.0699 
 314   0.0000       3.148638        85.6788 
 315   0.0000       3.164300        86.1050 
 316   0.0000       3.198716        87.0415 
 317   0.0000       3.208691        87.3129 
 318   0.0000       3.263261        88.7979 
 319   0.0000       3.305608        89.9502 
 320   0.0000       3.443888        93.7130 
 321   0.0000       3.489773        94.9615 

                    ********************************
                    * MULLIKEN POPULATION ANALYSIS *
                    ********************************

-----------------------
MULLIKEN ATOMIC CHARGES
-----------------------
   0 S :    0.091584
   1 C :   -0.144558
   2 C :   -0.098177
   3 C :    0.085610
   4 C :   -0.175937
   5 H :   -0.026061
   6 C :    0.155508
   7 H :   -0.001619
   8 H :   -0.012123
   9 C :   -0.122134
  10 H :    0.034469
  11 H :    0.040642
  12 C :   -0.037141
  13 H :    0.028884
  14 H :    0.045841
  15 H :    0.033504
  16 S :    0.119514
  17 C :   -0.082051
  18 C :    0.004644
  19 C :   -0.044819
  20 C :   -0.155312
  21 H :   -0.021109
  22 C :    0.074435
  23 H :    0.016251
  24 H :    0.012592
  25 C :   -0.052199
  26 H :    0.020011
  27 H :    0.031963
  28 C :   -0.032165
  29 H :    0.018091
  30 H :    0.033013
  31 H :    0.029854
  32 H :    0.071322
  33 H :    0.057672
Sum of atomic charges:    0.0000000

--------------------------------
MULLIKEN REDUCED ORBITAL CHARGES
--------------------------------
  0 S s       :     5.851992  s :     5.851992
      pz      :     3.466378  p :     9.957255
      px      :     2.957210
      py      :     3.533667
      dz2     :     0.009695  d :     0.099169
      dxz     :     0.034495
      dyz     :     0.011963
      dx2y2   :     0.011778
      dxy     :     0.031239
  1 C s       :     3.215534  s :     3.215534
      pz      :     0.989906  p :     2.897009
      px      :     0.877722
      py      :     1.029380
      dz2     :     0.005824  d :     0.032015
      dxz     :     0.007942
      dyz     :     0.004028
      dx2y2   :     0.007020
      dxy     :     0.007200
  2 C s       :     3.084500  s :     3.084500
      pz      :     0.975005  p :     2.969687
      px      :     0.986506
      py      :     1.008176
      dz2     :     0.008731  d :     0.043989
      dxz     :     0.009586
      dyz     :     0.006416
      dx2y2   :     0.009877
      dxy     :     0.009380
  3 C s       :     3.147551  s :     3.147551
      pz      :     0.953248  p :     2.730949
      px      :     0.881434
      py      :     0.896267
      dz2     :     0.004574  d :     0.035890
      dxz     :     0.008298
      dyz     :     0.004701
      dx2y2   :     0.008729
      dxy     :     0.009587
  4 C s       :     3.070649  s :     3.070649
      pz      :     1.031162  p :     3.058297
      px      :     1.010616
      py      :     1.016519
      dz2     :     0.007106  d :     0.046991
      dxz     :     0.010124
      dyz     :     0.004854
      dx2y2   :     0.011115
      dxy     :     0.013792
  5 H s       :     0.998342  s :     0.998342
      pz      :     0.009247  p :     0.027719
      px      :     0.008953
      py      :     0.009520
  6 C s       :     2.878755  s :     2.878755
      pz      :     0.950143  p :     2.929474
      px      :     0.975677
      py      :     1.003654
      dz2     :     0.006946  d :     0.036262
      dxz     :     0.008557
      dyz     :     0.007132
      dx2y2   :     0.004223
      dxy     :     0.009404
  7 H s       :     0.975821  s :     0.975821
      pz      :     0.007192  p :     0.025798
      px      :     0.012259
      py      :     0.006347
  8 H s       :     0.985341  s :     0.985341
      pz      :     0.005297  p :     0.026781
      px      :     0.009039
      py      :     0.012445
  9 C s       :     3.110702  s :     3.110702
      pz      :     0.960343  p :     2.976370
      px      :     0.999215
      py      :     1.016813
      dz2     :     0.005338  d :     0.035061
      dxz     :     0.009400
      dyz     :     0.008322
      dx2y2   :     0.002818
      dxy     :     0.009183
 10 H s       :     0.944771  s :     0.944771
      pz      :     0.004655  p :     0.020760
      px      :     0.007343
      py      :     0.008762
 11 H s       :     0.938548  s :     0.938548
      pz      :     0.006208  p :     0.020810
      px      :     0.009105
      py      :     0.005497
 12 C s       :     3.013845  s :     3.013845
      pz      :     1.010120  p :     2.995577
      px      :     0.981234
      py      :     1.004224
      dz2     :     0.001677  d :     0.027719
      dxz     :     0.007164
      dyz     :     0.008139
      dx2y2   :     0.002937
      dxy     :     0.007803
 13 H s       :     0.946165  s :     0.946165
      pz      :     0.008860  p :     0.024950
      px      :     0.006883
      py      :     0.009207
 14 H s       :     0.931504  s :     0.931504
      pz      :     0.006798  p :     0.022654
      px      :     0.007614
      py      :     0.008242
 15 H s       :     0.942759  s :     0.942759
      pz      :     0.006935  p :     0.023738
      px      :     0.010491
      py      :     0.006312
 16 S s       :     5.842244  s :     5.842244
      pz      :     3.270423  p :     9.935267
      px      :     2.995594
      py      :     3.669250
      dz2     :     0.022054  d :     0.102975
      dxz     :     0.032386
      dyz     :     0.009914
      dx2y2   :     0.016710
      dxy     :     0.021912
 17 C s       :     3.131337  s :     3.131337
      pz      :     0.971501  p :     2.914167
      px      :     0.860882
      py      :     1.081785
      dz2     :     0.007830  d :     0.036547
      dxz     :     0.012503
      dyz     :     0.007137
      dx2y2   :     0.005127
      dxy     :     0.003950
 18 C s       :     3.144724  s :     3.144724
      pz      :     0.881109  p :     2.813805
      px      :     0.912723
      py      :     1.019973
      dz2     :     0.009297  d :     0.036827
      dxz     :     0.011656
      dyz     :     0.006515
      dx2y2   :     0.004538
      dxy     :     0.004822
 19 C s       :     3.078605  s :     3.078605
      pz      :     0.960165  p :     2.923478
      px      :     0.979490
      py      :     0.983822
      dz2     :     0.009761  d :     0.042736
      dxz     :     0.014510
      dyz     :     0.006329
      dx2y2   :     0.004976
      dxy     :     0.007160
 20 C s       :     3.059826  s :     3.059826
      pz      :     0.911713  p :     3.053949
      px      :     1.010977
      py      :     1.131259
      dz2     :     0.009654  d :     0.041537
      dxz     :     0.013494
      dyz     :     0.005496
      dx2y2   :     0.006311
      dxy     :     0.006582
 21 H s       :     0.994335  s :     0.994335
      pz      :     0.007809  p :     0.026774
      px      :     0.012297
      py      :     0.006667
 22 C s       :     2.929008  s :     2.929008
      pz      :     0.949612  p :     2.960651
      px      :     1.011131
      py      :     0.999908
      dz2     :     0.008962  d :     0.035906
      dxz     :     0.006392
      dyz     :     0.007440
      dx2y2   :     0.005748
      dxy     :     0.007364
 23 H s       :     0.960359  s :     0.960359
      pz      :     0.005447  p :     0.023391
      px      :     0.008707
      py      :     0.009236
 24 H s       :     0.965507  s :     0.965507
      pz      :     0.005905  p :     0.021901
      px      :     0.011302
      py      :     0.004694
 25 C s       :     3.035426  s :     3.035426
      pz      :     0.990748  p :     2.979411
      px      :     1.011724
      py      :     0.976938
      dz2     :     0.008081  d :     0.037362
      dxz     :     0.008842
      dyz     :     0.005786
      dx2y2   :     0.005878
      dxy     :     0.008775
 26 H s       :     0.955251  s :     0.955251
      pz      :     0.005173  p :     0.024737
      px      :     0.009565
      py      :     0.010000
 27 H s       :     0.943481  s :     0.943481
      pz      :     0.008622  p :     0.024556
      px      :     0.010907
      py      :     0.005028
 28 C s       :     2.991453  s :     2.991453
      pz      :     0.976393  p :     3.011277
      px      :     1.023290
      py      :     1.011594
      dz2     :     0.007500  d :     0.029435
      dxz     :     0.007414
      dyz     :     0.004181
      dx2y2   :     0.006297
      dxy     :     0.004042
 29 H s       :     0.958719  s :     0.958719
      pz      :     0.008470  p :     0.023190
      px      :     0.008051
      py      :     0.006669
 30 H s       :     0.942961  s :     0.942961
      pz      :     0.005394  p :     0.024025
      px      :     0.004786
      py      :     0.013845
 31 H s       :     0.944861  s :     0.944861
      pz      :     0.004747  p :     0.025284
      px      :     0.013499
      py      :     0.007038
 32 H s       :     0.906094  s :     0.906094
      pz      :     0.004456  p :     0.022584
      px      :     0.014023
      py      :     0.004105
 33 H s       :     0.918688  s :     0.918688
      pz      :     0.006288  p :     0.023640
      px      :     0.012078
      py      :     0.005275


                     *******************************
                     * LOEWDIN POPULATION ANALYSIS *
                     *******************************

----------------------
LOEWDIN ATOMIC CHARGES
----------------------
   0 S :    0.378346
   1 C :   -0.194165
   2 C :   -0.057562
   3 C :   -0.040104
   4 C :   -0.185950
   5 H :    0.012514
   6 C :   -0.027236
   7 H :    0.026879
   8 H :    0.013724
   9 C :   -0.034528
  10 H :    0.027558
  11 H :    0.024678
  12 C :   -0.066855
  13 H :    0.026905
  14 H :    0.029535
  15 H :    0.024750
  16 S :    0.399560
  17 C :   -0.188204
  18 C :   -0.069429
  19 C :   -0.043750
  20 C :   -0.189865
  21 H :    0.015853
  22 C :   -0.036865
  23 H :    0.029450
  24 H :    0.029582
  25 C :   -0.034896
  26 H :    0.017784
  27 H :    0.029096
  28 C :   -0.059095
  29 H :    0.023184
  30 H :    0.031636
  31 H :    0.017011
  32 H :    0.037010
  33 H :    0.033450

-------------------------------
LOEWDIN REDUCED ORBITAL CHARGES
-------------------------------
  0 S s       :     5.529269  s :     5.529269
      pz      :     3.476599  p :     9.970892
      px      :     2.969414
      py      :     3.524879
      dz2     :     0.010231  d :     0.121493
      dxz     :     0.044152
      dyz     :     0.012591
      dx2y2   :     0.014553
      dxy     :     0.039966
  1 C s       :     2.950170  s :     2.950170
      pz      :     1.060502  p :     3.168794
      px      :     1.025329
      py      :     1.082963
      dz2     :     0.012334  d :     0.075201
      dxz     :     0.018778
      dyz     :     0.010499
      dx2y2   :     0.016216
      dxy     :     0.017373
  2 C s       :     2.860719  s :     2.860719
      pz      :     1.022528  p :     3.087675
      px      :     1.054768
      py      :     1.010379
      dz2     :     0.019136  d :     0.109168
      dxz     :     0.024330
      dyz     :     0.016986
      dx2y2   :     0.025884
      dxy     :     0.022833
  3 C s       :     2.845377  s :     2.845377
      pz      :     1.027744  p :     3.098017
      px      :     1.036088
      py      :     1.034186
      dz2     :     0.010852  d :     0.096710
      dxz     :     0.021028
      dyz     :     0.013694
      dx2y2   :     0.025500
      dxy     :     0.025636
  4 C s       :     2.901702  s :     2.901702
      pz      :     1.060932  p :     3.172316
      px      :     1.041162
      py      :     1.070221
      dz2     :     0.015544  d :     0.111932
      dxz     :     0.024940
      dyz     :     0.011260
      dx2y2   :     0.027702
      dxy     :     0.032487
  5 H s       :     0.903298  s :     0.903298
      pz      :     0.028603  p :     0.084188
      px      :     0.027739
      py      :     0.027846
  6 C s       :     2.800896  s :     2.800896
      pz      :     1.023435  p :     3.134028
      px      :     1.060643
      py      :     1.049949
      dz2     :     0.016054  d :     0.092312
      dxz     :     0.021821
      dyz     :     0.019833
      dx2y2   :     0.010398
      dxy     :     0.024206
  7 H s       :     0.897744  s :     0.897744
      pz      :     0.022435  p :     0.075377
      px      :     0.033588
      py      :     0.019353
  8 H s       :     0.903998  s :     0.903998
      pz      :     0.018988  p :     0.082278
      px      :     0.025841
      py      :     0.037449
  9 C s       :     2.859918  s :     2.859918
      pz      :     1.012107  p :     3.092809
      px      :     1.039253
      py      :     1.041449
      dz2     :     0.011053  d :     0.081801
      dxz     :     0.022838
      dyz     :     0.020099
      dx2y2   :     0.005489
      dxy     :     0.022322
 10 H s       :     0.910729  s :     0.910729
      pz      :     0.014189  p :     0.061714
      px      :     0.021449
      py      :     0.026076
 11 H s       :     0.911961  s :     0.911961
      pz      :     0.020047  p :     0.063361
      px      :     0.026601
      py      :     0.016712
 12 C s       :     2.839132  s :     2.839132
      pz      :     1.059160  p :     3.157835
      px      :     1.040906
      py      :     1.057769
      dz2     :     0.003346  d :     0.069888
      dxz     :     0.019327
      dyz     :     0.020504
      dx2y2   :     0.006032
      dxy     :     0.020679
 13 H s       :     0.903126  s :     0.903126
      pz      :     0.024997  p :     0.069969
      px      :     0.018850
      py      :     0.026123
 14 H s       :     0.907335  s :     0.907335
      pz      :     0.019278  p :     0.063130
      px      :     0.021207
      py      :     0.022644
 15 H s       :     0.907628  s :     0.907628
      pz      :     0.020054  p :     0.067622
      px      :     0.030454
      py      :     0.017114
 16 S s       :     5.521368  s :     5.521368
      pz      :     3.305700  p :     9.952468
      px      :     3.018791
      py      :     3.627978
      dz2     :     0.025906  d :     0.126604
      dxz     :     0.041618
      dyz     :     0.010261
      dx2y2   :     0.022451
      dxy     :     0.026368
 17 C s       :     2.921197  s :     2.921197
      pz      :     1.088075  p :     3.180795
      px      :     1.018104
      py      :     1.074616
      dz2     :     0.022236  d :     0.086212
      dxz     :     0.031948
      dyz     :     0.013969
      dx2y2   :     0.010698
      dxy     :     0.007360
 18 C s       :     2.842302  s :     2.842302
      pz      :     1.064143  p :     3.127966
      px      :     1.050585
      py      :     1.013238
      dz2     :     0.029053  d :     0.099161
      dxz     :     0.033896
      dyz     :     0.013864
      dx2y2   :     0.012253
      dxy     :     0.010094
 19 C s       :     2.862116  s :     2.862116
      pz      :     1.044093  p :     3.075328
      px      :     1.055997
      py      :     0.975238
      dz2     :     0.025708  d :     0.106306
      dxz     :     0.040146
      dyz     :     0.012442
      dx2y2   :     0.012941
      dxy     :     0.015069
 20 C s       :     2.913260  s :     2.913260
      pz      :     1.004586  p :     3.176915
      px      :     1.062112
      py      :     1.110216
      dz2     :     0.023528  d :     0.099690
      dxz     :     0.035282
      dyz     :     0.010721
      dx2y2   :     0.015754
      dxy     :     0.014405
 21 H s       :     0.902963  s :     0.902963
      pz      :     0.023721  p :     0.081184
      px      :     0.035938
      py      :     0.021525
 22 C s       :     2.828714  s :     2.828714
      pz      :     1.009847  p :     3.118885
      px      :     1.065323
      py      :     1.043715
      dz2     :     0.023827  d :     0.089266
      dxz     :     0.016387
      dyz     :     0.017313
      dx2y2   :     0.014265
      dxy     :     0.017474
 23 H s       :     0.901406  s :     0.901406
      pz      :     0.016814  p :     0.069144
      px      :     0.023944
      py      :     0.028385
 24 H s       :     0.907392  s :     0.907392
      pz      :     0.017526  p :     0.063026
      px      :     0.031383
      py      :     0.014118
 25 C s       :     2.818654  s :     2.818654
      pz      :     1.035222  p :     3.124371
      px      :     1.061394
      py      :     1.027755
      dz2     :     0.020630  d :     0.091871
      dxz     :     0.022470
      dyz     :     0.012330
      dx2y2   :     0.014482
      dxy     :     0.021959
 26 H s       :     0.907677  s :     0.907677
      pz      :     0.016576  p :     0.074539
      px      :     0.027333
      py      :     0.030630
 27 H s       :     0.900765  s :     0.900765
      pz      :     0.024934  p :     0.070139
      px      :     0.030098
      py      :     0.015107
 28 C s       :     2.824460  s :     2.824460
      pz      :     1.025343  p :     3.159835
      px      :     1.070571
      py      :     1.063920
      dz2     :     0.019493  d :     0.074800
      dxz     :     0.018588
      dyz     :     0.010095
      dx2y2   :     0.016281
      dxy     :     0.010343
 29 H s       :     0.913790  s :     0.913790
      pz      :     0.024959  p :     0.063026
      px      :     0.021378
      py      :     0.016689
 30 H s       :     0.902233  s :     0.902233
      pz      :     0.015306  p :     0.066131
      px      :     0.012640
      py      :     0.038185
 31 H s       :     0.909004  s :     0.909004
      pz      :     0.015809  p :     0.073984
      px      :     0.038046
      py      :     0.020129
 32 H s       :     0.892735  s :     0.892735
      pz      :     0.013872  p :     0.070254
      px      :     0.042746
      py      :     0.013637
 33 H s       :     0.892590  s :     0.892590
      pz      :     0.018546  p :     0.073960
      px      :     0.038260
      py      :     0.017154


                      *****************************
                      * MAYER POPULATION ANALYSIS *
                      *****************************

  NA   - Mulliken gross atomic population
  ZA   - Total nuclear charge
  QA   - Mulliken gross atomic charge
  VA   - Mayer's total valence
  BVA  - Mayer's bonded valence
  FA   - Mayer's free valence

  ATOM       NA         ZA         QA         VA         BVA        FA
  0 S     15.9084    16.0000     0.0916     2.4633     2.4633    -0.0000
  1 C      6.1446     6.0000    -0.1446     3.8203     3.8203     0.0000
  2 C      6.0982     6.0000    -0.0982     4.0161     4.0161     0.0000
  3 C      5.9144     6.0000     0.0856     3.9266     3.9266     0.0000
  4 C      6.1759     6.0000    -0.1759     3.9569     3.9569    -0.0000
  5 H      1.0261     1.0000    -0.0261     1.0076     1.0076     0.0000
  6 C      5.8445     6.0000     0.1555     3.9202     3.9202     0.0000
  7 H      1.0016     1.0000    -0.0016     0.9922     0.9922     0.0000
  8 H      1.0121     1.0000    -0.0121     1.0003     1.0003     0.0000
  9 C      6.1221     6.0000    -0.1221     4.0781     4.0781     0.0000
 10 H      0.9655     1.0000     0.0345     0.9773     0.9773     0.0000
 11 H      0.9594     1.0000     0.0406     0.9770     0.9770     0.0000
 12 C      6.0371     6.0000    -0.0371     3.9938     3.9938    -0.0000
 13 H      0.9711     1.0000     0.0289     0.9866     0.9866    -0.0000
 14 H      0.9542     1.0000     0.0458     0.9858     0.9858    -0.0000
 15 H      0.9665     1.0000     0.0335     0.9915     0.9915    -0.0000
 16 S     15.8805    16.0000     0.1195     2.4831     2.4831    -0.0000
 17 C      6.0821     6.0000    -0.0821     3.8234     3.8234    -0.0000
 18 C      5.9954     6.0000     0.0046     3.9960     3.9960    -0.0000
 19 C      6.0448     6.0000    -0.0448     4.0399     4.0399    -0.0000
 20 C      6.1553     6.0000    -0.1553     3.9142     3.9142    -0.0000
 21 H      1.0211     1.0000    -0.0211     1.0000     1.0000    -0.0000
 22 C      5.9256     6.0000     0.0744     3.9367     3.9367    -0.0000
 23 H      0.9837     1.0000     0.0163     0.9999     0.9999    -0.0000
 24 H      0.9874     1.0000     0.0126     0.9865     0.9865    -0.0000
 25 C      6.0522     6.0000    -0.0522     4.1065     4.1065    -0.0000
 26 H      0.9800     1.0000     0.0200     0.9805     0.9805    -0.0000
 27 H      0.9680     1.0000     0.0320     0.9815     0.9815    -0.0000
 28 C      6.0322     6.0000    -0.0322     4.0064     4.0064     0.0000
 29 H      0.9819     1.0000     0.0181     0.9879     0.9879     0.0000
 30 H      0.9670     1.0000     0.0330     0.9859     0.9859     0.0000
 31 H      0.9701     1.0000     0.0299     0.9931     0.9931    -0.0000
 32 H      0.9287     1.0000     0.0713     0.9976     0.9976     0.0000
 33 H      0.9423     1.0000     0.0577     0.9955     0.9955    -0.0000

  Mayer bond orders larger than 0.100000
B(  0-S ,  1-C ) :   1.1368 B(  0-S ,  4-C ) :   1.1250 B(  1-C ,  2-C ) :   1.5798 
B(  1-C , 32-H ) :   0.9676 B(  2-C ,  3-C ) :   1.2507 B(  2-C ,  6-C ) :   1.0393 
B(  3-C ,  4-C ) :   1.5669 B(  3-C ,  5-H ) :   0.9997 B(  4-C , 20-C ) :   1.0981 
B(  6-C ,  7-H ) :   0.9233 B(  6-C ,  8-H ) :   0.9363 B(  6-C ,  9-C ) :   1.0494 
B(  9-C , 10-H ) :   0.9579 B(  9-C , 11-H ) :   0.9590 B(  9-C , 12-C ) :   1.0815 
B( 12-C , 13-H ) :   0.9742 B( 12-C , 14-H ) :   0.9764 B( 12-C , 15-H ) :   0.9738 
B( 16-S , 17-C ) :   1.1664 B( 16-S , 20-C ) :   1.1253 B( 17-C , 18-C ) :   1.5883 
B( 17-C , 20-C ) :   0.1010 B( 17-C , 33-H ) :   0.9618 B( 18-C , 19-C ) :   1.2915 
B( 18-C , 21-H ) :   0.9962 B( 19-C , 20-C ) :   1.5397 B( 19-C , 22-C ) :   1.0499 
B( 22-C , 23-H ) :   0.9263 B( 22-C , 24-H ) :   0.9253 B( 22-C , 25-C ) :   1.0581 
B( 25-C , 26-H ) :   0.9602 B( 25-C , 27-H ) :   0.9578 B( 25-C , 28-C ) :   1.0898 
B( 28-C , 29-H ) :   0.9717 B( 28-C , 30-H ) :   0.9742 B( 28-C , 31-H ) :   0.9761 


-------
TIMINGS
-------

Total SCF time: 0 days 0 hours 0 min 30 sec 

Total time                  ....      30.589 sec
Sum of individual times     ....      29.449 sec  ( 96.3%)

Fock matrix formation       ....      27.292 sec  ( 89.2%)
  XC integration            ....       1.765 sec  (  6.5% of F)
    Basis function eval.    ....       0.214 sec  ( 12.1% of XC)
    Density eval.           ....       0.168 sec  (  9.5% of XC)
    XC-Functional eval.     ....       0.205 sec  ( 11.6% of XC)
    XC-Potential eval.      ....       0.190 sec  ( 10.8% of XC)
Diagonalization             ....       0.157 sec  (  0.5%)
Density matrix formation    ....       0.024 sec  (  0.1%)
Population analysis         ....       0.069 sec  (  0.2%)
Initial guess               ....       0.214 sec  (  0.7%)
Orbital Transformation      ....       0.000 sec  (  0.0%)
Orbital Orthonormalization  ....       0.000 sec  (  0.0%)
DIIS solution               ....       0.280 sec  (  0.9%)
SOSCF solution              ....       0.120 sec  (  0.4%)
Grid generation             ....       1.294 sec  (  4.2%)


-------------------------------------------------------------------------------
                          DFT DISPERSION CORRECTION                            
                                                                               
                              DFTD3 V3.1  Rev 1                                
                              USING zero damping                               
-------------------------------------------------------------------------------
The omegaB97X-D3 functional is recognized. Fit by Chai et al.
Active option DFTDOPT                   ...         3   

molecular C6(AA) [au] = 14196.526862 


            DFT-D V3
 parameters
 s6 scaling factor         :     1.0000 
 rs6 scaling factor        :     1.2810 
 s8 scaling factor         :     1.0000 
 rs8 scaling factor        :     1.0940 
 Damping factor alpha6     :    14.0000 
 Damping factor alpha8     :    16.0000 
 ad hoc parameters k1-k3   :    16.0000     1.3333    -4.0000 

 Edisp/kcal,au: -8.968267856149  -0.014291843024 
 E6   /kcal   :  -4.149839045 
 E8   /kcal   :  -4.818428811 
 % E8         :  53.727530095 

-------------------------   ----------------
Dispersion correction           -0.014291843
-------------------------   ----------------


-------------------------   --------------------
FINAL SINGLE POINT ENERGY     -1339.859290243345
-------------------------   --------------------


                            ***************************************
                            *     ORCA property calculations      *
                            ***************************************

                                    ---------------------
                                    Active property flags
                                    ---------------------
   (+) Dipole Moment


------------------------------------------------------------------------------
                       ORCA ELECTRIC PROPERTIES CALCULATION
------------------------------------------------------------------------------

Dipole Moment Calculation                       ... on
Quadrupole Moment Calculation                   ... off
Polarizability Calculation                      ... off
GBWName                                         ... config_650.gbw
Electron density file                           ... config_650.scfp
The origin for moment calculation is the CENTER OF MASS  = (-24.968103, 139.449869 105.773940)

-------------
DIPOLE MOMENT
-------------
                                X             Y             Z
Electronic contribution:     10.04171       1.89156      29.94060
Nuclear contribution   :    -10.09612      -2.08980     -30.60278
                        -----------------------------------------
Total Dipole Moment    :     -0.05441      -0.19824      -0.66218
                        -----------------------------------------
Magnitude (a.u.)       :      0.69335
Magnitude (Debye)      :      1.76237



--------------------
Rotational spectrum 
--------------------
 
Rotational constants in cm-1:     0.018861     0.008595     0.006795 
Rotational constants in MHz :   565.432457   257.661651   203.714812 

 Dipole components along the rotational axes: 
x,y,z [a.u.] :     0.387078    -0.514574     0.257146 
x,y,z [Debye]:     0.983875    -1.307944     0.653614 

 

Timings for individual modules:

Sum of individual times         ...       31.933 sec (=   0.532 min)
GTO integral calculation        ...        0.860 sec (=   0.014 min)   2.7 %
SCF iterations                  ...       31.073 sec (=   0.518 min)  97.3 %
                             ****ORCA TERMINATED NORMALLY****
TOTAL RUN TIME: 0 days 0 hours 0 minutes 32 seconds 749 msec
