
                                 *****************
                                 * O   R   C   A *
                                 *****************

           --- An Ab Initio, DFT and Semiempirical electronic structure package ---

                  #######################################################
                  #                        -***-                        #
                  #          Department of theory and spectroscopy      #
                  #               Directorship: Frank Neese             #
                  #        Max Planck Institute fuer Kohlenforschung    #
                  #                Kaiser Wilhelm Platz 1               #
                  #                 D-45470 Muelheim/Ruhr               #
                  #                      Germany                        #
                  #                                                     #
                  #                  All rights reserved                #
                  #                        -***-                        #
                  #######################################################


                         Program Version 4.2.1 -  RELEASE  -


 With contributions from (in alphabetic order):
   Daniel Aravena         : Magnetic Suceptibility
   Michael Atanasov       : Ab Initio Ligand Field Theory (pilot matlab implementation)
   Alexander A. Auer      : GIAO ZORA, VPT2
   Ute Becker             : Parallelization
   Giovanni Bistoni       : ED, misc. LED, open-shell LED, HFLD
   Martin Brehm           : Molecular dynamics
   Dmytro Bykov           : SCF Hessian
   Vijay G. Chilkuri      : MRCI spin determinant printing, contributions to CSF-ICE
   Dipayan Datta          : RHF DLPNO-CCSD density
   Achintya Kumar Dutta   : EOM-CC, STEOM-CC
   Dmitry Ganyushin       : Spin-Orbit,Spin-Spin,Magnetic field MRCI
   Miquel Garcia          : C-PCM Hessian, Gaussian charge scheme
   Yang Guo               : DLPNO-NEVPT2, CIM, IAO-localization
   Andreas Hansen         : Spin unrestricted coupled pair/coupled cluster methods
   Benjamin Helmich-Paris : CASSCF linear response (MC-RPA)
   Lee Huntington         : MR-EOM, pCC
   Robert Izsak           : Overlap fitted RIJCOSX, COSX-SCS-MP3, EOM
   Christian Kollmar      : KDIIS, OOCD, Brueckner-CCSD(T), CCSD density
   Simone Kossmann        : Meta GGA functionals, TD-DFT gradient, OOMP2, MP2 Hessian
   Martin Krupicka        : AUTO-CI
   Lucas Lang             : DCDCAS
   Dagmar Lenk            : GEPOL surface, SMD
   Dimitrios Liakos       : Extrapolation schemes; Compound Job, initial MDCI parallelization
   Dimitrios Manganas     : Further ROCIS development; embedding schemes
   Dimitrios Pantazis     : SARC Basis sets
   Taras Petrenko         : DFT Hessian,TD-DFT gradient, ASA, ECA, R-Raman, ABS, FL, XAS/XES, NRVS
   Peter Pinski           : DLPNO-MP2, DLPNO-MP2 Gradient
   Christoph Reimann      : Effective Core Potentials
   Marius Retegan         : Local ZFS, SOC
   Christoph Riplinger    : Optimizer, TS searches, QM/MM, DLPNO-CCSD(T), (RO)-DLPNO pert. Triples
   Tobias Risthaus        : Range-separated hybrids, TD-DFT gradient, RPA, STAB
   Michael Roemelt        : Original ROCIS implementation
   Masaaki Saitow         : Open-shell DLPNO-CCSD energy and density
   Barbara Sandhoefer     : DKH picture change effects
   Avijit Sen             : IP-ROCIS
   Kantharuban Sivalingam : CASSCF convergence, NEVPT2, FIC-MRCI
   Bernardo de Souza      : ESD, SOC TD-DFT
   Georgi Stoychev        : AutoAux, RI-MP2 NMR
   Willem Van den Heuvel  : Paramagnetic NMR
   Boris Wezisla          : Elementary symmetry handling
   Frank Wennmohs         : Technical directorship


 We gratefully acknowledge several colleagues who have allowed us to
 interface, adapt or use parts of their codes:
   Stefan Grimme, W. Hujo, H. Kruse,             : VdW corrections, initial TS optimization,
                  C. Bannwarth                     DFT functionals, gCP, sTDA/sTD-DF
   Ed Valeev, F. Pavosevic, A. Kumar             : LibInt (2-el integral package), F12 methods
   Garnet Chan, S. Sharma, J. Yang, R. Olivares  : DMRG
   Ulf Ekstrom                                   : XCFun DFT Library
   Mihaly Kallay                                 : mrcc  (arbitrary order and MRCC methods)
   Andreas Klamt, Michael Diedenhofen            : otool_cosmo (COSMO solvation model)
   Jiri Pittner, Ondrej Demel                    : Mk-CCSD
   Frank Weinhold                                : gennbo (NPA and NBO analysis)
   Christopher J. Cramer and Donald G. Truhlar   : smd solvation model
   Lars Goerigk                                  : TD-DFT with DH, B97 family of functionals
   V. Asgeirsson, H. Jonsson                     : NEB implementation
   FAccTs GmbH                                   : IRC, NEB, NEB-TS, Multilevel, MM, QM/MM, CI optimization
   S Lehtola, MJT Oliveira, MAL Marques          : LibXC Library


 Your calculation uses the libint2 library for the computation of 2-el integrals
 For citations please refer to: http://libint.valeyev.net

 Your ORCA version has been built with support for libXC version: 4.2.3
 For citations please refer to: https://tddft.org/programs/libxc/

 This ORCA versions uses:
   CBLAS   interface :  Fast vector & matrix operations
   LAPACKE interface :  Fast linear algebra routines
   SCALAPACK package :  Parallel linear algebra routines


Your calculation utilizes the atom-pairwise dispersion correction
with the zero-damping scheme (D30)
Cite in your paper:
S.Grimme, J.Antony, S.Ehrlich and H.Krieg, J.Chem.Phys., 132, (2010), 154104 
   

XCFun DFT library Copyright 2009-2010 Ulf Ekstrom and contributors.
See http://admol.org/xcfun for more information. This is free soft-
ware; see the source code for copying conditions. There is ABSOLUTELY
NO WARRANTY; not even for MERCHANTABILITY or FITNESS FOR A PARTICULAR
PURPOSE. For details see the documentation. Scientific users of this 
library should cite U. Ekstrom, L. Visscher, R. Bast, A. J. Thorvald-
sen and K. Ruud; J.Chem.Theor.Comp. 2010, DOI: 10.1021/ct100117s
XCFun Version 0.99 
----- Orbital basis set information -----
Your calculation utilizes the basis: def2-SVP
   F. Weigend and R. Ahlrichs, Phys. Chem. Chem. Phys. 7, 3297 (2005).

================================================================================
                                        WARNINGS
                       Please study these warnings very carefully!
================================================================================


INFO   : the flag for use of LIBINT has been found!

================================================================================
                                       INPUT FILE
================================================================================
NAME = config_2283.inp
|  1> ! wB97X-D3 SP def2-SVP
|  2> %pal
|  3> nprocs 16
|  4> end
|  5> 
|  6> * xyz 0 1
|  7> S 	 67.6295 	 28.9752 	 70.0716 	 
|  8> C 	 68.0753 	 27.7057 	 68.8795 	 
|  9> C 	 68.6704 	 26.6558 	 69.5381 	 
| 10> C 	 68.9008 	 26.8908 	 70.9412 	 
| 11> C 	 68.4467 	 28.1457 	 71.3513 	 
| 12> H 	 69.4772 	 26.3514 	 71.6686 	 
| 13> C 	 69.0758 	 25.3103 	 68.8749 	 
| 14> H 	 68.2187 	 25.0057 	 68.1929 	 
| 15> H 	 69.0961 	 24.6341 	 69.6471 	 
| 16> C 	 70.415 	 25.3285 	 68.2928 	 
| 17> H 	 70.4921 	 26.22 	 67.6911 	 
| 18> H 	 71.1187 	 25.6072 	 69.0757 	 
| 19> C 	 70.7778 	 23.9726 	 67.5524 	 
| 20> H 	 70.9756 	 23.1679 	 68.2523 	 
| 21> H 	 70.0554 	 23.593 	 66.8658 	 
| 22> H 	 71.7456 	 24.0126 	 66.9615 	 
| 23> S 	 68.8699 	 30.4435 	 72.9673 	 
| 24> C 	 68.5332 	 30.3077 	 74.6335 	 
| 25> C 	 68.1588 	 29.0379 	 75.0003 	 
| 26> C 	 68.1986 	 28.1137 	 73.9406 	 
| 27> C 	 68.4841 	 28.7385 	 72.7225 	 
| 28> H 	 67.8559 	 28.9692 	 76.0601 	 
| 29> C 	 67.9021 	 26.6269 	 74.1795 	 
| 30> H 	 67.9663 	 25.93 	 73.3526 	 
| 31> H 	 66.8073 	 26.6443 	 74.3866 	 
| 32> C 	 68.771 	 25.9541 	 75.2508 	 
| 33> H 	 68.3824 	 24.9443 	 75.4747 	 
| 34> H 	 68.6722 	 26.5577 	 76.1353 	 
| 35> C 	 70.2584 	 25.9257 	 74.7694 	 
| 36> H 	 70.6568 	 24.8473 	 74.8379 	 
| 37> H 	 70.8209 	 26.5606 	 75.48 	 
| 38> H 	 70.5028 	 26.3455 	 73.7425 	 
| 39> H 	 67.6332 	 27.5873 	 67.905 	 
| 40> H 	 68.8273 	 31.0525 	 75.3442 	 
| 41> *
| 42> 
| 43>                          ****END OF INPUT****
================================================================================

                       ****************************
                       * Single Point Calculation *
                       ****************************

---------------------------------
CARTESIAN COORDINATES (ANGSTROEM)
---------------------------------
  S     67.629500   28.975200   70.071600
  C     68.075300   27.705700   68.879500
  C     68.670400   26.655800   69.538100
  C     68.900800   26.890800   70.941200
  C     68.446700   28.145700   71.351300
  H     69.477200   26.351400   71.668600
  C     69.075800   25.310300   68.874900
  H     68.218700   25.005700   68.192900
  H     69.096100   24.634100   69.647100
  C     70.415000   25.328500   68.292800
  H     70.492100   26.220000   67.691100
  H     71.118700   25.607200   69.075700
  C     70.777800   23.972600   67.552400
  H     70.975600   23.167900   68.252300
  H     70.055400   23.593000   66.865800
  H     71.745600   24.012600   66.961500
  S     68.869900   30.443500   72.967300
  C     68.533200   30.307700   74.633500
  C     68.158800   29.037900   75.000300
  C     68.198600   28.113700   73.940600
  C     68.484100   28.738500   72.722500
  H     67.855900   28.969200   76.060100
  C     67.902100   26.626900   74.179500
  H     67.966300   25.930000   73.352600
  H     66.807300   26.644300   74.386600
  C     68.771000   25.954100   75.250800
  H     68.382400   24.944300   75.474700
  H     68.672200   26.557700   76.135300
  C     70.258400   25.925700   74.769400
  H     70.656800   24.847300   74.837900
  H     70.820900   26.560600   75.480000
  H     70.502800   26.345500   73.742500
  H     67.633200   27.587300   67.905000
  H     68.827300   31.052500   75.344200

----------------------------
CARTESIAN COORDINATES (A.U.)
----------------------------
  NO LB      ZA    FRAG     MASS         X           Y           Z
   0 S    16.0000    0    32.060  127.801234   54.755193  132.416134
   1 C     6.0000    0    12.011  128.643673   52.356185  130.163391
   2 C     6.0000    0    12.011  129.768250   50.372162  131.407965
   3 C     6.0000    0    12.011  130.203642   50.816248  134.059440
   4 C     6.0000    0    12.011  129.345518   53.187665  134.834416
   5 H     1.0000    0     1.008  131.292881   49.796929  135.434026
   6 C     6.0000    0    12.011  130.534344   47.829535  130.154699
   7 H     1.0000    0     1.008  128.914660   47.253925  128.865905
   8 H     1.0000    0     1.008  130.572706   46.551703  131.613945
   9 C     6.0000    0    12.011  133.065066   47.863928  129.054689
  10 H     1.0000    0     1.008  133.210764   49.548619  127.917641
  11 H     1.0000    0     1.008  134.394866   48.390595  130.534156
  12 C     6.0000    0    12.011  133.750658   45.301649  127.655536
  13 H     1.0000    0     1.008  134.124446   43.780986  128.978155
  14 H     1.0000    0     1.008  132.385520   44.584309  126.358050
  15 H     1.0000    0     1.008  135.579535   45.377238  126.538897
  16 S    16.0000    0    32.060  130.145250   57.529878  137.888214
  17 C     6.0000    0    12.011  129.508979   57.273253  141.036875
  18 C     6.0000    0    12.011  128.801466   54.873679  141.730027
  19 C     6.0000    0    12.011  128.876677   53.127194  139.727484
  20 C     6.0000    0    12.011  129.416194   54.307894  137.425609
  21 H     1.0000    0     1.008  128.229068   54.743854  143.732759
  22 C     6.0000    0    12.011  128.316373   50.317549  140.178940
  23 H     1.0000    0     1.008  128.437693   49.000599  138.616325
  24 H     1.0000    0     1.008  126.247501   50.350430  140.570302
  25 C     6.0000    0    12.011  129.958356   49.046141  142.203403
  26 H     1.0000    0     1.008  129.224008   47.137896  142.626513
  27 H     1.0000    0     1.008  129.771651   50.186780  143.874866
  28 C     6.0000    0    12.011  132.769135   48.992473  141.293689
  29 H     1.0000    0     1.008  133.522001   46.954592  141.423135
  30 H     1.0000    0     1.008  133.832106   50.192260  142.636529
  31 H     1.0000    0     1.008  133.230984   49.785780  139.353129
  32 H     1.0000    0     1.008  127.808226   52.132442  128.321853
  33 H     1.0000    0     1.008  130.064748   58.680721  142.379904

--------------------------------
INTERNAL COORDINATES (ANGSTROEM)
--------------------------------
 S      0   0   0     0.000000000000     0.00000000     0.00000000
 C      1   0   0     1.797629077424     0.00000000     0.00000000
 C      2   1   0     1.374841074452   109.20608039     0.00000000
 C      3   2   1     1.441179645291   114.27127496   354.13335472
 C      4   3   2     1.396124217253   112.36764817     0.94287269
 H      4   3   2     1.073452411614   131.57720082   191.61768742
 C      3   2   1     1.553883409397   124.73048372   173.97971174
 H      7   3   2     1.136892945708   106.93793863   317.00908091
 H      7   3   2     1.026621337203   104.74182766   203.85368929
 C      7   3   2     1.460352111650   113.48965270    87.67313585
 H     10   7   3     1.078313289355   107.35510958   311.31877955
 H     10   7   3     1.088944346604   108.01248058    56.36361628
 C     10   7   3     1.586909200301   112.64251957   183.13644255
 H     13  10   7     1.084678265662   111.99438363   286.52460509
 H     13  10   7     1.066479010576   116.72052906    48.88396666
 H     13  10   7     1.134636351436   114.07067669   171.40384008
 S      5   4   3     2.840851822957   147.74310304   218.23080715
 C     17   5   4     1.705294980348   117.51479879   283.56573547
 C     18  17   5     1.373721092507   112.84955855     3.51428658
 C     19  18  17     1.406660502751   113.48136649     2.99321327
 C     20  19  18     1.398446602484   111.61851265   353.99973230
 H     19  18  17     1.104374999717   112.86042068   185.01850011
 C     20  19  18     1.534783274603   120.91371977   175.98413286
 H     23  20  19     1.083307370971   119.53346626   181.71153797
 H     23  20  19     1.114351923766   101.74753241    70.33534057
 C     23  20  19     1.534708682454   115.08509979   304.45734445
 H     26  23  20     1.104915023882   110.05868020   170.64113041
 H     26  23  20     1.075376515459   106.02551381    53.72691937
 C     26  23  20     1.563621207326   109.36703212   294.52692920
 H     29  26  23     1.151677632847   109.13303068   232.77596772
 H     29  26  23     1.106551679769   105.98736169   115.69348329
 H     29  26  23     1.135996043127   118.44078702   358.19627140
 H      2   1   3     1.076624920759   125.17504022   158.23409685
 H     18  17   5     1.070661636559   122.61179446   168.55177184

---------------------------
INTERNAL COORDINATES (A.U.)
---------------------------
 S      0   0   0     0.000000000000     0.00000000     0.00000000
 C      1   0   0     3.397026646705     0.00000000     0.00000000
 C      2   1   0     2.598073108380   109.20608039     0.00000000
 C      3   2   1     2.723434839381   114.27127496   354.13335472
 C      4   3   2     2.638292419543   112.36764817     0.94287269
 H      4   3   2     2.028531075748   131.57720082   191.61768742
 C      3   2   1     2.936414087805   124.73048372   173.97971174
 H      7   3   2     2.148416310975   106.93793863   317.00908091
 H      7   3   2     1.940033170553   104.74182766   203.85368929
 C      7   3   2     2.759665550112   113.48965270    87.67313585
 H     10   7   3     2.037716803449   107.35510958   311.31877955
 H     10   7   3     2.057806590163   108.01248058    56.36361628
 C     10   7   3     2.998823787969   112.64251957   183.13644255
 H     13  10   7     2.049744865518   111.99438363   286.52460509
 H     13  10   7     2.015353257565   116.72052906    48.88396666
 H     13  10   7     2.144151965806   114.07067669   171.40384008
 S      5   4   3     5.368431932440   147.74310304   218.23080715
 C     17   5   4     3.222540490408   117.51479879   283.56573547
 C     18  17   5     2.595956649230   112.84955855     3.51428658
 C     19  18  17     2.658203113604   113.48136649     2.99321327
 C     20  19  18     2.642681091608   111.61851265   353.99973230
 H     19  18  17     2.086966298615   112.86042068   185.01850011
 C     20  19  18     2.900320063922   120.91371977   175.98413286
 H     23  20  19     2.047154249993   119.53346626   181.71153797
 H     23  20  19     2.105819952725   101.74753241    70.33534057
 C     23  20  19     2.900179105189   115.08509979   304.45734445
 H     26  23  20     2.087986796392   110.05868020   170.64113041
 H     26  23  20     2.032167105067   106.02551381    53.72691937
 C     26  23  20     2.954815859038   109.36703212   294.52692920
 H     29  26  23     2.176355320643   109.13303068   232.77596772
 H     29  26  23     2.091079627794   105.98736169   115.69348329
 H     29  26  23     2.146721410728   118.44078702   358.19627140
 H      2   1   3     2.034526249190   125.17504022   158.23409685
 H     18  17   5     2.023257275193   122.61179446   168.55177184

---------------------
BASIS SET INFORMATION
---------------------
There are 3 groups of distinct atoms

 Group   1 Type S   : 10s7p1d contracted to 4s3p1d pattern {5311/511/1}
 Group   2 Type C   : 7s4p1d contracted to 3s2p1d pattern {511/31/1}
 Group   3 Type H   : 4s1p contracted to 2s1p pattern {31/1}

Atom   0S    basis set group =>   1
Atom   1C    basis set group =>   2
Atom   2C    basis set group =>   2
Atom   3C    basis set group =>   2
Atom   4C    basis set group =>   2
Atom   5H    basis set group =>   3
Atom   6C    basis set group =>   2
Atom   7H    basis set group =>   3
Atom   8H    basis set group =>   3
Atom   9C    basis set group =>   2
Atom  10H    basis set group =>   3
Atom  11H    basis set group =>   3
Atom  12C    basis set group =>   2
Atom  13H    basis set group =>   3
Atom  14H    basis set group =>   3
Atom  15H    basis set group =>   3
Atom  16S    basis set group =>   1
Atom  17C    basis set group =>   2
Atom  18C    basis set group =>   2
Atom  19C    basis set group =>   2
Atom  20C    basis set group =>   2
Atom  21H    basis set group =>   3
Atom  22C    basis set group =>   2
Atom  23H    basis set group =>   3
Atom  24H    basis set group =>   3
Atom  25C    basis set group =>   2
Atom  26H    basis set group =>   3
Atom  27H    basis set group =>   3
Atom  28C    basis set group =>   2
Atom  29H    basis set group =>   3
Atom  30H    basis set group =>   3
Atom  31H    basis set group =>   3
Atom  32H    basis set group =>   3
Atom  33H    basis set group =>   3


           ************************************************************
           *        Program running with 16 parallel MPI-processes    *
           *              working on a common directory               *
           ************************************************************
------------------------------------------------------------------------------
                           ORCA GTO INTEGRAL CALCULATION
------------------------------------------------------------------------------

                         BASIS SET STATISTICS AND STARTUP INFO

 # of primitive gaussian shells          ...  294
 # of primitive gaussian functions       ...  534
 # of contracted shells                  ...  154
 # of contracted basis functions         ...  322
 Highest angular momentum                ...    2
 Maximum contraction depth               ...    5
 Integral package used                   ... LIBINT
 Integral threshhold            Thresh   ...  1.000e-10
 Primitive cut-off              TCut     ...  1.000e-11


------------------------------ INTEGRAL EVALUATION ----------------------------


 * One electron integrals 
 Pre-screening matrix                    ... done
 Shell pair data                         ... done (   0.003 sec)



           ************************************************************
           *        Program running with 16 parallel MPI-processes    *
           *              working on a common directory               *
           ************************************************************
-------------------------------------------------------------------------------
                                 ORCA SCF
-------------------------------------------------------------------------------

------------
SCF SETTINGS
------------
Hamiltonian:
 Density Functional     Method          .... DFT(GTOs)
 Exchange Functional    Exchange        .... WB97X-D3
 Correlation Functional Correlation     .... WB97X-D3
 Gradients option       PostSCFGGA      .... off
 Hybrid DFT is turned on
   Fraction HF Exchange ScalHFX         ....  0.195728
   Scaling of DF-GGA-X  ScalDFX         ....  0.000000
   Scaling of DF-GGA-C  ScalDFC         ....  1.000000
   Scaling of DF-LDA-C  ScalLDAC        ....  1.000000
   Perturbative correction              ....  0.000000
   Density functional embedding theory  .... OFF
 Long-range corrected/Screened/Range-Separated Hybrid DFT is turned on
   Amount of maximum screened exact exchange              ....  0.804272
   Range separation parameter mu (erf(mu*r12)/r12)        ....  0.250000


General Settings:
 Integral files         IntName         .... config_2283
 Hartree-Fock type      HFTyp           .... RHF
 Total Charge           Charge          ....    0
 Multiplicity           Mult            ....    1
 Number of Electrons    NEL             ....  134
 Basis Dimension        Dim             ....  322
 Nuclear Repulsion      ENuc            ....   1277.7548329690 Eh

Convergence Acceleration:
 DIIS                   CNVDIIS         .... on
   Start iteration      DIISMaxIt       ....    12
   Startup error        DIISStart       ....  0.200000
   # of expansion vecs  DIISMaxEq       ....     5
   Bias factor          DIISBfac        ....   1.050
   Max. coefficient     DIISMaxC        ....  10.000
 Newton-Raphson         CNVNR           .... off
 SOSCF                  CNVSOSCF        .... on
   Start iteration      SOSCFMaxIt      ....   150
   Startup grad/error   SOSCFStart      ....  0.003300
 Level Shifting         CNVShift        .... on
   Level shift para.    LevelShift      ....    0.2500
   Turn off err/grad.   ShiftErr        ....    0.0010
 Zerner damping         CNVZerner       .... off
 Static damping         CNVDamp         .... on
   Fraction old density DampFac         ....    0.7000
   Max. Damping (<1)    DampMax         ....    0.9800
   Min. Damping (>=0)   DampMin         ....    0.0000
   Turn off err/grad.   DampErr         ....    0.1000
 Fernandez-Rico         CNVRico         .... off

SCF Procedure:
 Maximum # iterations   MaxIter         ....   125
 SCF integral mode      SCFMode         .... Direct
   Integral package                     .... LIBINT
 Reset frequency        DirectResetFreq ....    20
 Integral Threshold     Thresh          ....  1.000e-10 Eh
 Primitive CutOff       TCut            ....  1.000e-11 Eh

Convergence Tolerance:
 Convergence Check Mode ConvCheckMode   .... Total+1el-Energy
 Convergence forced     ConvForced      .... 0
 Energy Change          TolE            ....  1.000e-06 Eh
 1-El. energy change                    ....  1.000e-03 Eh
 Orbital Gradient       TolG            ....  5.000e-05
 Orbital Rotation angle TolX            ....  5.000e-05
 DIIS Error             TolErr          ....  1.000e-06


Diagonalization of the overlap matrix:
Smallest eigenvalue                        ... 6.559e-04
Time for diagonalization                   ...    0.015 sec
Threshold for overlap eigenvalues          ... 1.000e-08
Number of eigenvalues below threshold      ... 0
Time for construction of square roots      ...    0.024 sec
Total time needed                          ...    0.040 sec

-------------------
DFT GRID GENERATION
-------------------

General Integration Accuracy     IntAcc      ...  4.340
Radial Grid Type                 RadialGrid  ... Gauss-Chebyshev
Angular Grid (max. acc.)         AngularGrid ... Lebedev-110
Angular grid pruning method      GridPruning ... 3 (G Style)
Weight generation scheme         WeightScheme... Becke
Basis function cutoff            BFCut       ...    1.0000e-10
Integration weight cutoff        WCut        ...    1.0000e-14
Grids for H and He will be reduced by one unit

# of grid points (after initial pruning)     ...  41088 (   0.0 sec)
# of grid points (after weights+screening)   ...  36989 (   0.0 sec)
nearest neighbour list constructed           ...    0.0 sec
Grid point re-assignment to atoms done       ...    0.0 sec
Grid point division into batches done        ...    0.0 sec
Reduced shell lists constructed in    0.1 sec

Total number of grid points                  ...    36989
Total number of batches                      ...      597
Average number of points per batch           ...       61
Average number of grid points per atom       ...     1088
Average number of shells per batch           ...    74.64 (48.47%)
Average number of basis functions per batch  ...   147.56 (45.83%)
Average number of large shells per batch     ...    46.21 (61.90%)
Average number of large basis fcns per batch ...    95.49 (64.71%)
Maximum spatial batch extension              ...  15.31, 16.65, 11.90 au
Average spatial batch extension              ...   0.24,  0.25,  0.21 au

Time for grid setup =    0.165 sec

------------------------------
INITIAL GUESS: MODEL POTENTIAL
------------------------------
Loading Hartree-Fock densities                     ... done
Calculating cut-offs                               ... done
Setting up the integral package                    ... done
Initializing the effective Hamiltonian             ... done
Starting the Coulomb interaction                   ... done (   0.0 sec)
Reading the grid                                   ... done
Mapping shells                                     ... done
Starting the XC term evaluation                    ... done (   0.0 sec)
  promolecular density results
     # of electrons  =    133.983930439
     EX              =   -126.688508705
     EC              =     -4.615453837
     EX+EC           =   -131.303962542
Transforming the Hamiltonian                       ... done (   0.0 sec)
Diagonalizing the Hamiltonian                      ... done (   0.0 sec)
Back transforming the eigenvectors                 ... done (   0.0 sec)
Now organizing SCF variables                       ... done
                      ------------------
                      INITIAL GUESS DONE (   0.4 sec)
                      ------------------
--------------
SCF ITERATIONS
--------------
ITER       Energy         Delta-E        Max-DP      RMS-DP      [F,P]     Damp
               ***  Starting incremental Fock matrix formation  ***
  0  -1339.4239751263   0.000000000000 0.06080083  0.00154416  0.1494647 0.7000
  1  -1339.6081729122  -0.184197785905 0.04102617  0.00112476  0.0907100 0.7000
                               ***Turning on DIIS***
  2  -1339.6967340099  -0.088561097765 0.09080953  0.00211269  0.0472630 0.0000
  3  -1339.8303407203  -0.133606710386 0.04170178  0.00096643  0.0482618 0.0000
  4  -1339.8595172132  -0.029176492828 0.00738464  0.00019839  0.0071970 0.0000
                      *** Initiating the SOSCF procedure ***
                           *** Shutting down DIIS ***
                      *** Re-Reading the Fockian *** 
                      *** Removing any level shift *** 
ITER      Energy       Delta-E        Grad      Rot      Max-DP    RMS-DP
  5  -1339.86040294  -0.0008857231  0.001419  0.001419  0.002856  0.000095
               *** Restarting incremental Fock matrix formation ***
  6  -1339.86058444  -0.0001815074  0.001241  0.003456  0.002506  0.000062
  7  -1339.86064597  -0.0000615259  0.000729  0.004439  0.003476  0.000061
  8  -1339.86066220  -0.0000162283  0.000458  0.000896  0.000805  0.000019
  9  -1339.86066661  -0.0000044142  0.000155  0.000386  0.000315  0.000009
 10  -1339.86066704  -0.0000004299  0.000069  0.000230  0.000158  0.000004
                 **** Energy Check signals convergence ****
              ***Rediagonalizing the Fockian in SOSCF/NRSCF***

               *****************************************************
               *                     SUCCESS                       *
               *           SCF CONVERGED AFTER  11 CYCLES          *
               *****************************************************

Setting up the final grid:

General Integration Accuracy     IntAcc      ...  4.670
Radial Grid Type                 RadialGrid  ... Gauss-Chebyshev
Angular Grid (max. acc.)         AngularGrid ... Lebedev-302
Angular grid pruning method      GridPruning ... 3 (G Style)
Weight generation scheme         WeightScheme... Becke
Basis function cutoff            BFCut       ...    1.0000e-10
Integration weight cutoff        WCut        ...    1.0000e-14
Grids for H and He will be reduced by one unit

# of grid points (after initial pruning)     ... 161752 (   0.0 sec)
# of grid points (after weights+screening)   ... 142801 (   0.1 sec)
nearest neighbour list constructed           ...    0.0 sec
Grid point re-assignment to atoms done       ...    0.0 sec
Grid point division into batches done        ...    0.5 sec
Reduced shell lists constructed in    0.6 sec

Total number of grid points                  ...   142801
Total number of batches                      ...     2246
Average number of points per batch           ...       63
Average number of grid points per atom       ...     4200
Average number of shells per batch           ...    67.81 (44.03%)
Average number of basis functions per batch  ...   134.15 (41.66%)
Average number of large shells per batch     ...    40.93 (60.36%)
Average number of large basis fcns per batch ...    84.23 (62.79%)
Maximum spatial batch extension              ...  17.05, 14.10, 14.55 au
Average spatial batch extension              ...   0.16,  0.16,  0.15 au

Final grid set up in    0.9 sec
Final integration                            ... done (   0.3 sec)
Change in XC energy                          ...     0.008273142
Integrated number of electrons               ...   133.999604072
Previous integrated no of electrons          ...   133.995610830

----------------
TOTAL SCF ENERGY
----------------

Total Energy       :        -1339.85239415 Eh          -36459.23720 eV

Components:
Nuclear Repulsion  :         1277.75483297 Eh           34769.47665 eV
Electronic Energy  :        -2617.60722712 Eh          -71228.71385 eV
One Electron Energy:        -4372.09582596 Eh         -118970.77578 eV
Two Electron Energy:         1754.48859884 Eh           47742.06193 eV

Virial components:
Potential Energy   :        -2671.15619366 Eh          -72685.85531 eV
Kinetic Energy     :         1331.30379951 Eh           36226.61811 eV
Virial Ratio       :            2.00642122


DFT components:
N(Alpha)           :       66.999802035787 electrons
N(Beta)            :       66.999802035787 electrons
N(Total)           :      133.999604071573 electrons
E(XC)              :      -94.211132263067 Eh       
DFET-embed. en.    :        0.000000000000 Eh       

---------------
SCF CONVERGENCE
---------------

  Last Energy change         ...   -2.5140e-07  Tolerance :   1.0000e-06
  Last MAX-Density change    ...    3.1568e-05  Tolerance :   1.0000e-05
  Last RMS-Density change    ...    6.1949e-07  Tolerance :   1.0000e-06
  Last Orbital Gradient      ...    8.1660e-06  Tolerance :   5.0000e-05
  Last Orbital Rotation      ...    1.7103e-05  Tolerance :   5.0000e-05

             **** THE GBW FILE WAS UPDATED (config_2283.gbw) ****
             **** DENSITY FILE WAS UPDATED (config_2283.scfp) ****
             **** ENERGY FILE WAS UPDATED (config_2283.en.tmp) ****
             **** THE GBW FILE WAS UPDATED (config_2283.gbw) ****
             **** DENSITY FILE WAS UPDATED (config_2283.scfp) ****
----------------
ORBITAL ENERGIES
----------------

  NO   OCC          E(Eh)            E(eV) 
   0   2.0000     -88.968788     -2420.9638 
   1   2.0000     -88.965106     -2420.8636 
   2   2.0000     -10.333387      -281.1858 
   3   2.0000     -10.332150      -281.1521 
   4   2.0000     -10.313465      -280.6436 
   5   2.0000     -10.312960      -280.6299 
   6   2.0000     -10.309507      -280.5360 
   7   2.0000     -10.304067      -280.3879 
   8   2.0000     -10.295533      -280.1557 
   9   2.0000     -10.293376      -280.0970 
  10   2.0000     -10.293223      -280.0928 
  11   2.0000     -10.291716      -280.0518 
  12   2.0000     -10.291321      -280.0411 
  13   2.0000     -10.285953      -279.8950 
  14   2.0000     -10.284064      -279.8436 
  15   2.0000     -10.283971      -279.8411 
  16   2.0000      -8.084049      -219.9782 
  17   2.0000      -8.079425      -219.8523 
  18   2.0000      -6.042375      -164.4214 
  19   2.0000      -6.038472      -164.3152 
  20   2.0000      -6.038015      -164.3027 
  21   2.0000      -6.034978      -164.2201 
  22   2.0000      -6.033977      -164.1929 
  23   2.0000      -6.030124      -164.0880 
  24   2.0000      -1.007847       -27.4249 
  25   2.0000      -0.984770       -26.7969 
  26   2.0000      -0.916066       -24.9274 
  27   2.0000      -0.910096       -24.7650 
  28   2.0000      -0.865224       -23.5439 
  29   2.0000      -0.849273       -23.1099 
  30   2.0000      -0.839003       -22.8304 
  31   2.0000      -0.812457       -22.1081 
  32   2.0000      -0.783517       -21.3206 
  33   2.0000      -0.775010       -21.0891 
  34   2.0000      -0.707696       -19.2574 
  35   2.0000      -0.703271       -19.1370 
  36   2.0000      -0.695137       -18.9156 
  37   2.0000      -0.654027       -17.7970 
  38   2.0000      -0.640476       -17.4282 
  39   2.0000      -0.620465       -16.8837 
  40   2.0000      -0.601441       -16.3660 
  41   2.0000      -0.572852       -15.5881 
  42   2.0000      -0.558609       -15.2005 
  43   2.0000      -0.549784       -14.9604 
  44   2.0000      -0.539846       -14.6900 
  45   2.0000      -0.521326       -14.1860 
  46   2.0000      -0.512651       -13.9500 
  47   2.0000      -0.509513       -13.8646 
  48   2.0000      -0.506513       -13.7829 
  49   2.0000      -0.494298       -13.4505 
  50   2.0000      -0.487579       -13.2677 
  51   2.0000      -0.475950       -12.9513 
  52   2.0000      -0.474925       -12.9234 
  53   2.0000      -0.468349       -12.7444 
  54   2.0000      -0.463163       -12.6033 
  55   2.0000      -0.447898       -12.1879 
  56   2.0000      -0.446207       -12.1419 
  57   2.0000      -0.442104       -12.0303 
  58   2.0000      -0.429878       -11.6976 
  59   2.0000      -0.421138       -11.4598 
  60   2.0000      -0.416103       -11.3228 
  61   2.0000      -0.414072       -11.2675 
  62   2.0000      -0.411337       -11.1930 
  63   2.0000      -0.350957        -9.5500 
  64   2.0000      -0.335902        -9.1404 
  65   2.0000      -0.330476        -8.9927 
  66   2.0000      -0.290238        -7.8978 
  67   0.0000       0.028653         0.7797 
  68   0.0000       0.071045         1.9332 
  69   0.0000       0.107729         2.9315 
  70   0.0000       0.119210         3.2439 
  71   0.0000       0.134316         3.6549 
  72   0.0000       0.139630         3.7995 
  73   0.0000       0.150386         4.0922 
  74   0.0000       0.155236         4.2242 
  75   0.0000       0.159753         4.3471 
  76   0.0000       0.170224         4.6320 
  77   0.0000       0.173071         4.7095 
  78   0.0000       0.187157         5.0928 
  79   0.0000       0.189591         5.1590 
  80   0.0000       0.195514         5.3202 
  81   0.0000       0.202746         5.5170 
  82   0.0000       0.211022         5.7422 
  83   0.0000       0.213282         5.8037 
  84   0.0000       0.214961         5.8494 
  85   0.0000       0.228482         6.2173 
  86   0.0000       0.233410         6.3514 
  87   0.0000       0.241120         6.5612 
  88   0.0000       0.242302         6.5934 
  89   0.0000       0.253748         6.9048 
  90   0.0000       0.259359         7.0575 
  91   0.0000       0.271972         7.4007 
  92   0.0000       0.287993         7.8367 
  93   0.0000       0.291489         7.9318 
  94   0.0000       0.298587         8.1250 
  95   0.0000       0.311036         8.4637 
  96   0.0000       0.329218         8.9585 
  97   0.0000       0.348659         9.4875 
  98   0.0000       0.349712         9.5162 
  99   0.0000       0.361336         9.8325 
 100   0.0000       0.375027        10.2050 
 101   0.0000       0.394685        10.7399 
 102   0.0000       0.415622        11.3097 
 103   0.0000       0.419757        11.4222 
 104   0.0000       0.435384        11.8474 
 105   0.0000       0.445435        12.1209 
 106   0.0000       0.462031        12.5725 
 107   0.0000       0.470772        12.8104 
 108   0.0000       0.487387        13.2625 
 109   0.0000       0.500072        13.6076 
 110   0.0000       0.504142        13.7184 
 111   0.0000       0.509239        13.8571 
 112   0.0000       0.518703        14.1146 
 113   0.0000       0.525891        14.3102 
 114   0.0000       0.541360        14.7312 
 115   0.0000       0.544341        14.8123 
 116   0.0000       0.549813        14.9612 
 117   0.0000       0.556738        15.1496 
 118   0.0000       0.568924        15.4812 
 119   0.0000       0.573963        15.6183 
 120   0.0000       0.585605        15.9351 
 121   0.0000       0.596837        16.2408 
 122   0.0000       0.605457        16.4753 
 123   0.0000       0.612185        16.6584 
 124   0.0000       0.617250        16.7962 
 125   0.0000       0.622099        16.9282 
 126   0.0000       0.634896        17.2764 
 127   0.0000       0.640399        17.4261 
 128   0.0000       0.655947        17.8492 
 129   0.0000       0.668723        18.1969 
 130   0.0000       0.673933        18.3386 
 131   0.0000       0.676198        18.4003 
 132   0.0000       0.692256        18.8372 
 133   0.0000       0.697255        18.9733 
 134   0.0000       0.701369        19.0852 
 135   0.0000       0.706981        19.2379 
 136   0.0000       0.712052        19.3759 
 137   0.0000       0.719670        19.5832 
 138   0.0000       0.727525        19.7970 
 139   0.0000       0.732482        19.9319 
 140   0.0000       0.743313        20.2266 
 141   0.0000       0.748051        20.3555 
 142   0.0000       0.752886        20.4871 
 143   0.0000       0.755265        20.5518 
 144   0.0000       0.760442        20.6927 
 145   0.0000       0.762014        20.7355 
 146   0.0000       0.766976        20.8705 
 147   0.0000       0.769844        20.9485 
 148   0.0000       0.772299        21.0153 
 149   0.0000       0.779000        21.1977 
 150   0.0000       0.785086        21.3633 
 151   0.0000       0.786628        21.4052 
 152   0.0000       0.789957        21.4958 
 153   0.0000       0.794320        21.6145 
 154   0.0000       0.802970        21.8499 
 155   0.0000       0.804386        21.8885 
 156   0.0000       0.804854        21.9012 
 157   0.0000       0.812586        22.1116 
 158   0.0000       0.823165        22.3995 
 159   0.0000       0.825133        22.4530 
 160   0.0000       0.829359        22.5680 
 161   0.0000       0.835401        22.7324 
 162   0.0000       0.841155        22.8890 
 163   0.0000       0.845028        22.9944 
 164   0.0000       0.853562        23.2266 
 165   0.0000       0.861544        23.4438 
 166   0.0000       0.873056        23.7571 
 167   0.0000       0.882427        24.0121 
 168   0.0000       0.892878        24.2965 
 169   0.0000       0.899453        24.4754 
 170   0.0000       0.910834        24.7851 
 171   0.0000       0.931962        25.3600 
 172   0.0000       0.937415        25.5084 
 173   0.0000       0.944331        25.6966 
 174   0.0000       0.960249        26.1297 
 175   0.0000       0.968265        26.3478 
 176   0.0000       0.974326        26.5128 
 177   0.0000       0.984459        26.7885 
 178   0.0000       0.999806        27.2061 
 179   0.0000       1.016841        27.6696 
 180   0.0000       1.048243        28.5241 
 181   0.0000       1.076278        29.2870 
 182   0.0000       1.095505        29.8102 
 183   0.0000       1.103862        30.0376 
 184   0.0000       1.114696        30.3324 
 185   0.0000       1.123074        30.5604 
 186   0.0000       1.140350        31.0305 
 187   0.0000       1.157675        31.5019 
 188   0.0000       1.160384        31.5757 
 189   0.0000       1.179118        32.0854 
 190   0.0000       1.200436        32.6655 
 191   0.0000       1.206137        32.8207 
 192   0.0000       1.242452        33.8088 
 193   0.0000       1.270659        34.5764 
 194   0.0000       1.272925        34.6381 
 195   0.0000       1.284619        34.9563 
 196   0.0000       1.294420        35.2230 
 197   0.0000       1.334455        36.3124 
 198   0.0000       1.360630        37.0246 
 199   0.0000       1.397399        38.0252 
 200   0.0000       1.405793        38.2536 
 201   0.0000       1.425783        38.7975 
 202   0.0000       1.433726        39.0137 
 203   0.0000       1.447187        39.3800 
 204   0.0000       1.469015        39.9739 
 205   0.0000       1.482413        40.3385 
 206   0.0000       1.498816        40.7849 
 207   0.0000       1.501335        40.8534 
 208   0.0000       1.537575        41.8395 
 209   0.0000       1.562891        42.5284 
 210   0.0000       1.586988        43.1842 
 211   0.0000       1.601141        43.5693 
 212   0.0000       1.611629        43.8546 
 213   0.0000       1.631627        44.3988 
 214   0.0000       1.644392        44.7462 
 215   0.0000       1.652435        44.9650 
 216   0.0000       1.666120        45.3374 
 217   0.0000       1.680546        45.7300 
 218   0.0000       1.739365        47.3305 
 219   0.0000       1.765935        48.0535 
 220   0.0000       1.771692        48.2102 
 221   0.0000       1.794219        48.8232 
 222   0.0000       1.805619        49.1334 
 223   0.0000       1.813331        49.3433 
 224   0.0000       1.818325        49.4791 
 225   0.0000       1.834453        49.9180 
 226   0.0000       1.836384        49.9706 
 227   0.0000       1.847425        50.2710 
 228   0.0000       1.855256        50.4841 
 229   0.0000       1.858205        50.5643 
 230   0.0000       1.867172        50.8083 
 231   0.0000       1.871923        50.9376 
 232   0.0000       1.879391        51.1408 
 233   0.0000       1.882042        51.2130 
 234   0.0000       1.897351        51.6295 
 235   0.0000       1.902393        51.7667 
 236   0.0000       1.914054        52.0841 
 237   0.0000       1.918969        52.2178 
 238   0.0000       1.927032        52.4372 
 239   0.0000       1.935345        52.6634 
 240   0.0000       1.939164        52.7673 
 241   0.0000       1.942811        52.8666 
 242   0.0000       1.954259        53.1781 
 243   0.0000       1.959328        53.3160 
 244   0.0000       1.974550        53.7302 
 245   0.0000       1.977899        53.8214 
 246   0.0000       1.990942        54.1763 
 247   0.0000       2.005819        54.5811 
 248   0.0000       2.030144        55.2430 
 249   0.0000       2.031730        55.2862 
 250   0.0000       2.042239        55.5721 
 251   0.0000       2.054045        55.8934 
 252   0.0000       2.060781        56.0767 
 253   0.0000       2.076344        56.5002 
 254   0.0000       2.096752        57.0555 
 255   0.0000       2.101835        57.1938 
 256   0.0000       2.109406        57.3999 
 257   0.0000       2.119680        57.6794 
 258   0.0000       2.151111        58.5347 
 259   0.0000       2.166514        58.9538 
 260   0.0000       2.180021        59.3214 
 261   0.0000       2.187771        59.5323 
 262   0.0000       2.203173        59.9514 
 263   0.0000       2.210214        60.1430 
 264   0.0000       2.228938        60.6525 
 265   0.0000       2.233929        60.7883 
 266   0.0000       2.249141        61.2022 
 267   0.0000       2.266170        61.6656 
 268   0.0000       2.275194        61.9112 
 269   0.0000       2.292323        62.3773 
 270   0.0000       2.324216        63.2451 
 271   0.0000       2.344431        63.7952 
 272   0.0000       2.351125        63.9774 
 273   0.0000       2.381746        64.8106 
 274   0.0000       2.397825        65.2481 
 275   0.0000       2.420140        65.8554 
 276   0.0000       2.435153        66.2639 
 277   0.0000       2.454746        66.7970 
 278   0.0000       2.459035        66.9138 
 279   0.0000       2.473695        67.3127 
 280   0.0000       2.496315        67.9282 
 281   0.0000       2.503076        68.1122 
 282   0.0000       2.515747        68.4570 
 283   0.0000       2.533653        68.9442 
 284   0.0000       2.539266        69.0969 
 285   0.0000       2.552036        69.4444 
 286   0.0000       2.557525        69.5938 
 287   0.0000       2.565932        69.8226 
 288   0.0000       2.579161        70.1825 
 289   0.0000       2.611536        71.0635 
 290   0.0000       2.622148        71.3523 
 291   0.0000       2.628644        71.5291 
 292   0.0000       2.644167        71.9514 
 293   0.0000       2.701473        73.5108 
 294   0.0000       2.716236        73.9125 
 295   0.0000       2.742642        74.6311 
 296   0.0000       2.754438        74.9521 
 297   0.0000       2.772057        75.4315 
 298   0.0000       2.776149        75.5429 
 299   0.0000       2.794299        76.0367 
 300   0.0000       2.841717        77.3271 
 301   0.0000       2.865615        77.9774 
 302   0.0000       2.886950        78.5579 
 303   0.0000       2.914619        79.3108 
 304   0.0000       2.932692        79.8026 
 305   0.0000       2.954020        80.3830 
 306   0.0000       2.970626        80.8348 
 307   0.0000       2.987185        81.2854 
 308   0.0000       3.009692        81.8979 
 309   0.0000       3.017128        82.1002 
 310   0.0000       3.059925        83.2648 
 311   0.0000       3.070855        83.5622 
 312   0.0000       3.093693        84.1837 
 313   0.0000       3.103873        84.4607 
 314   0.0000       3.114105        84.7391 
 315   0.0000       3.150927        85.7411 
 316   0.0000       3.173216        86.3476 
 317   0.0000       3.197513        87.0087 
 318   0.0000       3.263642        88.8082 
 319   0.0000       3.281363        89.2904 
 320   0.0000       3.370793        91.7239 
 321   0.0000       3.419380        93.0461 

                    ********************************
                    * MULLIKEN POPULATION ANALYSIS *
                    ********************************

-----------------------
MULLIKEN ATOMIC CHARGES
-----------------------
   0 S :    0.097355
   1 C :   -0.112073
   2 C :   -0.125390
   3 C :    0.030635
   4 C :   -0.134864
   5 H :   -0.002186
   6 C :    0.094817
   7 H :    0.035521
   8 H :   -0.009726
   9 C :   -0.034174
  10 H :    0.015836
  11 H :    0.019809
  12 C :   -0.049836
  13 H :    0.028287
  14 H :    0.029841
  15 H :    0.039812
  16 S :    0.122358
  17 C :   -0.097818
  18 C :   -0.067396
  19 C :   -0.004056
  20 C :   -0.172369
  21 H :    0.037108
  22 C :    0.033806
  23 H :    0.022198
  24 H :    0.040903
  25 C :   -0.052163
  26 H :    0.040602
  27 H :    0.026091
  28 C :   -0.115311
  29 H :    0.051124
  30 H :    0.042285
  31 H :    0.059981
  32 H :    0.050843
  33 H :    0.058146
Sum of atomic charges:   -0.0000000

--------------------------------
MULLIKEN REDUCED ORBITAL CHARGES
--------------------------------
  0 S s       :     5.850983  s :     5.850983
      pz      :     2.976420  p :     9.947750
      px      :     3.550665
      py      :     3.420665
      dz2     :     0.015252  d :     0.103912
      dxz     :     0.027190
      dyz     :     0.037440
      dx2y2   :     0.011895
      dxy     :     0.012134
  1 C s       :     3.180582  s :     3.180582
      pz      :     0.901789  p :     2.898622
      px      :     1.063635
      py      :     0.933199
      dz2     :     0.005547  d :     0.032869
      dxz     :     0.005893
      dyz     :     0.010011
      dx2y2   :     0.006294
      dxy     :     0.005123
  2 C s       :     3.100850  s :     3.100850
      pz      :     0.986959  p :     2.981140
      px      :     0.993717
      py      :     1.000463
      dz2     :     0.010666  d :     0.043401
      dxz     :     0.006943
      dyz     :     0.011862
      dx2y2   :     0.007260
      dxy     :     0.006670
  3 C s       :     3.178718  s :     3.178718
      pz      :     0.868665  p :     2.757539
      px      :     0.974119
      py      :     0.914755
      dz2     :     0.008172  d :     0.033108
      dxz     :     0.006870
      dyz     :     0.007987
      dx2y2   :     0.005090
      dxy     :     0.004990
  4 C s       :     3.076119  s :     3.076119
      pz      :     0.986804  p :     3.014405
      px      :     1.025975
      py      :     1.001626
      dz2     :     0.008036  d :     0.044340
      dxz     :     0.009206
      dyz     :     0.013289
      dx2y2   :     0.007418
      dxy     :     0.006391
  5 H s       :     0.976545  s :     0.976545
      pz      :     0.009640  p :     0.025641
      px      :     0.008730
      py      :     0.007271
  6 C s       :     2.930875  s :     2.930875
      pz      :     0.989502  p :     2.936176
      px      :     0.980980
      py      :     0.965694
      dz2     :     0.003959  d :     0.038132
      dxz     :     0.008403
      dyz     :     0.010301
      dx2y2   :     0.009740
      dxy     :     0.005729
  7 H s       :     0.943689  s :     0.943689
      pz      :     0.007364  p :     0.020790
      px      :     0.008997
      py      :     0.004428
  8 H s       :     0.983142  s :     0.983142
      pz      :     0.011334  p :     0.026585
      px      :     0.005546
      py      :     0.009705
  9 C s       :     3.019718  s :     3.019718
      pz      :     1.026530  p :     2.976832
      px      :     0.970228
      py      :     0.980074
      dz2     :     0.003548  d :     0.037624
      dxz     :     0.009642
      dyz     :     0.009219
      dx2y2   :     0.010188
      dxy     :     0.005026
 10 H s       :     0.960151  s :     0.960151
      pz      :     0.008285  p :     0.024013
      px      :     0.005099
      py      :     0.010629
 11 H s       :     0.956906  s :     0.956906
      pz      :     0.009886  p :     0.023285
      px      :     0.008517
      py      :     0.004882
 12 C s       :     3.022409  s :     3.022409
      pz      :     1.009483  p :     3.000955
      px      :     1.020986
      py      :     0.970486
      dz2     :     0.001272  d :     0.026472
      dxz     :     0.007271
      dyz     :     0.008485
      dx2y2   :     0.006213
      dxy     :     0.003232
 13 H s       :     0.947376  s :     0.947376
      pz      :     0.008929  p :     0.024337
      px      :     0.006115
      py      :     0.009292
 14 H s       :     0.945382  s :     0.945382
      pz      :     0.009530  p :     0.024777
      px      :     0.009580
      py      :     0.005668
 15 H s       :     0.938289  s :     0.938289
      pz      :     0.007083  p :     0.021899
      px      :     0.011026
      py      :     0.003789
 16 S s       :     5.842826  s :     5.842826
      pz      :     3.112759  p :     9.923375
      px      :     3.625616
      py      :     3.185000
      dz2     :     0.038045  d :     0.111441
      dxz     :     0.021042
      dyz     :     0.016753
      dx2y2   :     0.019073
      dxy     :     0.016528
 17 C s       :     3.130158  s :     3.130158
      pz      :     0.863348  p :     2.930421
      px      :     1.065171
      py      :     1.001902
      dz2     :     0.010146  d :     0.037239
      dxz     :     0.006555
      dyz     :     0.009917
      dx2y2   :     0.005209
      dxy     :     0.005411
 18 C s       :     3.189843  s :     3.189843
      pz      :     0.894310  p :     2.841348
      px      :     1.011079
      py      :     0.935959
      dz2     :     0.009222  d :     0.036205
      dxz     :     0.004242
      dyz     :     0.009563
      dx2y2   :     0.005969
      dxy     :     0.007210
 19 C s       :     3.057964  s :     3.057964
      pz      :     0.949072  p :     2.902521
      px      :     0.998776
      py      :     0.954673
      dz2     :     0.008443  d :     0.043571
      dxz     :     0.007634
      dyz     :     0.014171
      dx2y2   :     0.006282
      dxy     :     0.007041
 20 C s       :     3.079799  s :     3.079799
      pz      :     1.026527  p :     3.051017
      px      :     1.122198
      py      :     0.902291
      dz2     :     0.012511  d :     0.041553
      dxz     :     0.007349
      dyz     :     0.009422
      dx2y2   :     0.006479
      dxy     :     0.005792
 21 H s       :     0.939529  s :     0.939529
      pz      :     0.013925  p :     0.023363
      px      :     0.005784
      py      :     0.003654
 22 C s       :     2.994632  s :     2.994632
      pz      :     1.017970  p :     2.936434
      px      :     1.007469
      py      :     0.910995
      dz2     :     0.006339  d :     0.035128
      dxz     :     0.003828
      dyz     :     0.009025
      dx2y2   :     0.011310
      dxy     :     0.004625
 23 H s       :     0.953726  s :     0.953726
      pz      :     0.010989  p :     0.024075
      px      :     0.005159
      py      :     0.007927
 24 H s       :     0.936512  s :     0.936512
      pz      :     0.004717  p :     0.022585
      px      :     0.013326
      py      :     0.004542
 25 C s       :     3.054504  s :     3.054504
      pz      :     0.997885  p :     2.962358
      px      :     0.955968
      py      :     1.008505
      dz2     :     0.007153  d :     0.035301
      dxz     :     0.006970
      dyz     :     0.007182
      dx2y2   :     0.007576
      dxy     :     0.006420
 26 H s       :     0.937592  s :     0.937592
      pz      :     0.004541  p :     0.021805
      px      :     0.004617
      py      :     0.012647
 27 H s       :     0.950457  s :     0.950457
      pz      :     0.011041  p :     0.023452
      px      :     0.004200
      py      :     0.008211
 28 C s       :     3.086101  s :     3.086101
      pz      :     1.021053  p :     3.003999
      px      :     0.970131
      py      :     1.012815
      dz2     :     0.004758  d :     0.025210
      dxz     :     0.005683
      dyz     :     0.003977
      dx2y2   :     0.005442
      dxy     :     0.005349
 29 H s       :     0.928305  s :     0.928305
      pz      :     0.004102  p :     0.020570
      px      :     0.004557
      py      :     0.011911
 30 H s       :     0.934415  s :     0.934415
      pz      :     0.008820  p :     0.023299
      px      :     0.006709
      py      :     0.007771
 31 H s       :     0.918241  s :     0.918241
      pz      :     0.012307  p :     0.021778
      px      :     0.003614
      py      :     0.005858
 32 H s       :     0.924924  s :     0.924924
      pz      :     0.013479  p :     0.024233
      px      :     0.006952
      py      :     0.003803
 33 H s       :     0.917757  s :     0.917757
      pz      :     0.008266  p :     0.024097
      px      :     0.006028
      py      :     0.009803


                     *******************************
                     * LOEWDIN POPULATION ANALYSIS *
                     *******************************

----------------------
LOEWDIN ATOMIC CHARGES
----------------------
   0 S :    0.395022
   1 C :   -0.195215
   2 C :   -0.051782
   3 C :   -0.077602
   4 C :   -0.182492
   5 H :    0.024382
   6 C :   -0.027022
   7 H :    0.035650
   8 H :    0.015080
   9 C :   -0.041684
  10 H :    0.021589
  11 H :    0.028985
  12 C :   -0.069132
  13 H :    0.024614
  14 H :    0.021131
  15 H :    0.034677
  16 S :    0.421823
  17 C :   -0.195612
  18 C :   -0.079622
  19 C :   -0.051057
  20 C :   -0.202945
  21 H :    0.040697
  22 C :   -0.036432
  23 H :    0.025784
  24 H :    0.037806
  25 C :   -0.037711
  26 H :    0.028789
  27 H :    0.016642
  28 C :   -0.081710
  29 H :    0.036171
  30 H :    0.032260
  31 H :    0.031643
  32 H :    0.029237
  33 H :    0.028039

-------------------------------
LOEWDIN REDUCED ORBITAL CHARGES
-------------------------------
  0 S s       :     5.516514  s :     5.516514
      pz      :     2.989973  p :     9.960475
      px      :     3.536260
      py      :     3.434241
      dz2     :     0.019867  d :     0.127989
      dxz     :     0.034816
      dyz     :     0.048110
      dx2y2   :     0.012202
      dxy     :     0.012993
  1 C s       :     2.937341  s :     2.937341
      pz      :     1.042722  p :     3.180150
      px      :     1.097157
      py      :     1.040271
      dz2     :     0.013547  d :     0.077724
      dxz     :     0.013370
      dyz     :     0.024611
      dx2y2   :     0.014056
      dxy     :     0.012140
  2 C s       :     2.870965  s :     2.870965
      pz      :     1.045592  p :     3.075322
      px      :     0.988961
      py      :     1.040769
      dz2     :     0.028571  d :     0.105496
      dxz     :     0.015337
      dyz     :     0.030770
      dx2y2   :     0.015664
      dxy     :     0.015154
  3 C s       :     2.867840  s :     2.867840
      pz      :     1.032844  p :     3.122110
      px      :     1.041689
      py      :     1.047577
      dz2     :     0.023539  d :     0.087652
      dxz     :     0.016367
      dyz     :     0.022660
      dx2y2   :     0.012670
      dxy     :     0.012417
  4 C s       :     2.916656  s :     2.916656
      pz      :     1.023515  p :     3.162048
      px      :     1.054498
      py      :     1.084034
      dz2     :     0.020103  d :     0.103788
      dxz     :     0.019475
      dyz     :     0.033410
      dx2y2   :     0.016771
      dxy     :     0.014030
  5 H s       :     0.901101  s :     0.901101
      pz      :     0.028203  p :     0.074517
      px      :     0.025377
      py      :     0.020937
  6 C s       :     2.813890  s :     2.813890
      pz      :     1.059683  p :     3.117336
      px      :     1.038244
      py      :     1.019410
      dz2     :     0.008916  d :     0.095796
      dxz     :     0.022496
      dyz     :     0.026057
      dx2y2   :     0.025428
      dxy     :     0.012899
  7 H s       :     0.905507  s :     0.905507
      pz      :     0.020185  p :     0.058842
      px      :     0.025753
      py      :     0.012904
  8 H s       :     0.904351  s :     0.904351
      pz      :     0.032947  p :     0.080569
      px      :     0.018146
      py      :     0.029475
  9 C s       :     2.823796  s :     2.823796
      pz      :     1.063136  p :     3.125611
      px      :     1.037453
      py      :     1.025022
      dz2     :     0.007087  d :     0.092277
      dxz     :     0.024026
      dyz     :     0.023393
      dx2y2   :     0.026717
      dxy     :     0.011053
 10 H s       :     0.908155  s :     0.908155
      pz      :     0.022661  p :     0.070256
      px      :     0.015137
      py      :     0.032458
 11 H s       :     0.903298  s :     0.903298
      pz      :     0.027891  p :     0.067717
      px      :     0.024442
      py      :     0.015384
 12 C s       :     2.844125  s :     2.844125
      pz      :     1.063058  p :     3.159030
      px      :     1.067882
      py      :     1.028090
      dz2     :     0.002599  d :     0.065977
      dxz     :     0.018790
      dyz     :     0.021289
      dx2y2   :     0.015818
      dxy     :     0.007481
 13 H s       :     0.907064  s :     0.907064
      pz      :     0.024413  p :     0.068323
      px      :     0.015667
      py      :     0.028243
 14 H s       :     0.907436  s :     0.907436
      pz      :     0.026579  p :     0.071433
      px      :     0.026994
      py      :     0.017860
 15 H s       :     0.905893  s :     0.905893
      pz      :     0.018423  p :     0.059430
      px      :     0.030155
      py      :     0.010851
 16 S s       :     5.496257  s :     5.496257
      pz      :     3.139723  p :     9.943451
      px      :     3.588072
      py      :     3.215655
      dz2     :     0.050184  d :     0.138469
      dxz     :     0.025036
      dyz     :     0.020325
      dx2y2   :     0.023892
      dxy     :     0.019032
 17 C s       :     2.922015  s :     2.922015
      pz      :     1.013927  p :     3.185904
      px      :     1.074187
      py      :     1.097791
      dz2     :     0.025111  d :     0.087693
      dxz     :     0.014107
      dyz     :     0.025099
      dx2y2   :     0.012632
      dxy     :     0.010744
 18 C s       :     2.864260  s :     2.864260
      pz      :     1.042792  p :     3.121630
      px      :     1.021951
      py      :     1.056887
      dz2     :     0.024763  d :     0.093733
      dxz     :     0.008514
      dyz     :     0.028272
      dx2y2   :     0.015749
      dxy     :     0.016435
 19 C s       :     2.859732  s :     2.859732
      pz      :     1.056656  p :     3.082488
      px      :     0.982905
      py      :     1.042928
      dz2     :     0.024454  d :     0.108838
      dxz     :     0.016656
      dyz     :     0.040387
      dx2y2   :     0.014546
      dxy     :     0.012795
 20 C s       :     2.917396  s :     2.917396
      pz      :     1.067867  p :     3.186761
      px      :     1.116470
      py      :     1.002425
      dz2     :     0.032199  d :     0.098787
      dxz     :     0.015097
      dyz     :     0.025702
      dx2y2   :     0.013829
      dxy     :     0.011962
 21 H s       :     0.891505  s :     0.891505
      pz      :     0.039671  p :     0.067798
      px      :     0.016711
      py      :     0.011416
 22 C s       :     2.832314  s :     2.832314
      pz      :     1.068115  p :     3.116774
      px      :     1.048856
      py      :     0.999803
      dz2     :     0.014955  d :     0.087344
      dxz     :     0.010023
      dyz     :     0.022931
      dx2y2   :     0.029035
      dxy     :     0.010399
 23 H s       :     0.903045  s :     0.903045
      pz      :     0.032177  p :     0.071171
      px      :     0.014705
      py      :     0.024290
 24 H s       :     0.896941  s :     0.896941
      pz      :     0.014068  p :     0.065253
      px      :     0.038425
      py      :     0.012760
 25 C s       :     2.838758  s :     2.838758
      pz      :     1.047111  p :     3.113268
      px      :     1.011815
      py      :     1.054342
      dz2     :     0.016333  d :     0.085684
      dxz     :     0.016913
      dyz     :     0.018626
      dx2y2   :     0.019836
      dxy     :     0.013976
 26 H s       :     0.907129  s :     0.907129
      pz      :     0.013833  p :     0.064082
      px      :     0.015262
      py      :     0.034987
 27 H s       :     0.912963  s :     0.912963
      pz      :     0.033212  p :     0.070395
      px      :     0.014123
      py      :     0.023061
 28 C s       :     2.868756  s :     2.868756
      pz      :     1.064807  p :     3.150023
      px      :     1.023588
      py      :     1.061629
      dz2     :     0.013008  d :     0.062931
      dxz     :     0.013298
      dyz     :     0.009912
      dx2y2   :     0.014731
      dxy     :     0.011981
 29 H s       :     0.906668  s :     0.906668
      pz      :     0.010101  p :     0.057161
      px      :     0.013611
      py      :     0.033449
 30 H s       :     0.902447  s :     0.902447
      pz      :     0.023899  p :     0.065293
      px      :     0.020021
      py      :     0.021374
 31 H s       :     0.907677  s :     0.907677
      pz      :     0.033912  p :     0.060680
      px      :     0.011608
      py      :     0.015160
 32 H s       :     0.894522  s :     0.894522
      pz      :     0.041014  p :     0.076241
      px      :     0.021400
      py      :     0.013827
 33 H s       :     0.895320  s :     0.895320
      pz      :     0.028365  p :     0.076641
      px      :     0.019524
      py      :     0.028751


                      *****************************
                      * MAYER POPULATION ANALYSIS *
                      *****************************

  NA   - Mulliken gross atomic population
  ZA   - Total nuclear charge
  QA   - Mulliken gross atomic charge
  VA   - Mayer's total valence
  BVA  - Mayer's bonded valence
  FA   - Mayer's free valence

  ATOM       NA         ZA         QA         VA         BVA        FA
  0 S     15.9026    16.0000     0.0974     2.4754     2.4754     0.0000
  1 C      6.1121     6.0000    -0.1121     3.8347     3.8347    -0.0000
  2 C      6.1254     6.0000    -0.1254     4.0264     4.0264    -0.0000
  3 C      5.9694     6.0000     0.0306     3.9200     3.9200    -0.0000
  4 C      6.1349     6.0000    -0.1349     3.9320     3.9320    -0.0000
  5 H      1.0022     1.0000    -0.0022     1.0152     1.0152     0.0000
  6 C      5.9052     6.0000     0.0948     3.9548     3.9548     0.0000
  7 H      0.9645     1.0000     0.0355     0.9873     0.9873     0.0000
  8 H      1.0097     1.0000    -0.0097     0.9918     0.9918    -0.0000
  9 C      6.0342     6.0000    -0.0342     4.0490     4.0490    -0.0000
 10 H      0.9842     1.0000     0.0158     0.9907     0.9907    -0.0000
 11 H      0.9802     1.0000     0.0198     0.9822     0.9822     0.0000
 12 C      6.0498     6.0000    -0.0498     3.9833     3.9833    -0.0000
 13 H      0.9717     1.0000     0.0283     0.9879     0.9879     0.0000
 14 H      0.9702     1.0000     0.0298     0.9927     0.9927    -0.0000
 15 H      0.9602     1.0000     0.0398     0.9852     0.9852    -0.0000
 16 S     15.8776    16.0000     0.1224     2.5136     2.5136     0.0000
 17 C      6.0978     6.0000    -0.0978     3.8674     3.8674     0.0000
 18 C      6.0674     6.0000    -0.0674     3.9646     3.9646     0.0000
 19 C      6.0041     6.0000    -0.0041     3.9559     3.9559    -0.0000
 20 C      6.1724     6.0000    -0.1724     3.9006     3.9006    -0.0000
 21 H      0.9629     1.0000     0.0371     0.9947     0.9947     0.0000
 22 C      5.9662     6.0000     0.0338     3.9847     3.9847     0.0000
 23 H      0.9778     1.0000     0.0222     0.9995     0.9995    -0.0000
 24 H      0.9591     1.0000     0.0409     0.9812     0.9812    -0.0000
 25 C      6.0522     6.0000    -0.0522     4.0339     4.0339     0.0000
 26 H      0.9594     1.0000     0.0406     0.9791     0.9791    -0.0000
 27 H      0.9739     1.0000     0.0261     0.9847     0.9847     0.0000
 28 C      6.1153     6.0000    -0.1153     3.9680     3.9680    -0.0000
 29 H      0.9489     1.0000     0.0511     0.9811     0.9811    -0.0000
 30 H      0.9577     1.0000     0.0423     0.9851     0.9851     0.0000
 31 H      0.9400     1.0000     0.0600     0.9944     0.9944    -0.0000
 32 H      0.9492     1.0000     0.0508     1.0058     1.0058     0.0000
 33 H      0.9419     1.0000     0.0581     0.9944     0.9944     0.0000

  Mayer bond orders larger than 0.100000
B(  0-S ,  1-C ) :   1.1092 B(  0-S ,  4-C ) :   1.1736 B(  1-C ,  2-C ) :   1.6370 
B(  1-C , 32-H ) :   0.9665 B(  2-C ,  3-C ) :   1.2258 B(  2-C ,  6-C ) :   1.0146 
B(  3-C ,  4-C ) :   1.5812 B(  3-C ,  5-H ) :   0.9895 B(  4-C , 20-C ) :   1.0245 
B(  6-C ,  7-H ) :   0.9421 B(  6-C ,  8-H ) :   0.9314 B(  6-C ,  9-C ) :   1.0704 
B(  9-C , 10-H ) :   0.9569 B(  9-C , 11-H ) :   0.9477 B(  9-C , 12-C ) :   1.0580 
B( 12-C , 13-H ) :   0.9763 B( 12-C , 14-H ) :   0.9793 B( 12-C , 15-H ) :   0.9766 
B( 16-S , 17-C ) :   1.1734 B( 16-S , 20-C ) :   1.1528 B( 17-C , 18-C ) :   1.6054 
B( 17-C , 33-H ) :   0.9647 B( 18-C , 19-C ) :   1.2497 B( 18-C , 21-H ) :   0.9868 
B( 19-C , 20-C ) :   1.5691 B( 19-C , 22-C ) :   1.0234 B( 22-C , 23-H ) :   0.9474 
B( 22-C , 24-H ) :   0.9339 B( 22-C , 25-C ) :   1.0701 B( 25-C , 26-H ) :   0.9614 
B( 25-C , 27-H ) :   0.9657 B( 25-C , 28-C ) :   1.0343 B( 28-C , 29-H ) :   0.9784 
B( 28-C , 30-H ) :   0.9765 B( 28-C , 31-H ) :   0.9768 

-------
TIMINGS
-------

Total SCF time: 0 days 0 hours 0 min 28 sec 

Total time                  ....      28.303 sec
Sum of individual times     ....      27.328 sec  ( 96.6%)

Fock matrix formation       ....      25.520 sec  ( 90.2%)
  XC integration            ....       1.917 sec  (  7.5% of F)
    Basis function eval.    ....       0.218 sec  ( 11.4% of XC)
    Density eval.           ....       0.193 sec  ( 10.1% of XC)
    XC-Functional eval.     ....       0.185 sec  (  9.6% of XC)
    XC-Potential eval.      ....       0.184 sec  (  9.6% of XC)
Diagonalization             ....       0.135 sec  (  0.5%)
Density matrix formation    ....       0.019 sec  (  0.1%)
Population analysis         ....       0.049 sec  (  0.2%)
Initial guess               ....       0.191 sec  (  0.7%)
Orbital Transformation      ....       0.000 sec  (  0.0%)
Orbital Orthonormalization  ....       0.000 sec  (  0.0%)
DIIS solution               ....       0.159 sec  (  0.6%)
SOSCF solution              ....       0.155 sec  (  0.5%)
Grid generation             ....       1.100 sec  (  3.9%)


-------------------------------------------------------------------------------
                          DFT DISPERSION CORRECTION                            
                                                                               
                              DFTD3 V3.1  Rev 1                                
                              USING zero damping                               
-------------------------------------------------------------------------------
The omegaB97X-D3 functional is recognized. Fit by Chai et al.
Active option DFTDOPT                   ...         3   

molecular C6(AA) [au] = 14199.139238 


            DFT-D V3
 parameters
 s6 scaling factor         :     1.0000 
 rs6 scaling factor        :     1.2810 
 s8 scaling factor         :     1.0000 
 rs8 scaling factor        :     1.0940 
 Damping factor alpha6     :    14.0000 
 Damping factor alpha8     :    16.0000 
 ad hoc parameters k1-k3   :    16.0000     1.3333    -4.0000 

 Edisp/kcal,au: -9.086478966736  -0.014480224400 
 E6   /kcal   :  -4.177275686 
 E8   /kcal   :  -4.909203281 
 % E8         :  54.027564460 

-------------------------   ----------------
Dispersion correction           -0.014480224
-------------------------   ----------------


-------------------------   --------------------
FINAL SINGLE POINT ENERGY     -1339.866874375581
-------------------------   --------------------


                            ***************************************
                            *     ORCA property calculations      *
                            ***************************************

                                    ---------------------
                                    Active property flags
                                    ---------------------
   (+) Dipole Moment


------------------------------------------------------------------------------
                       ORCA ELECTRIC PROPERTIES CALCULATION
------------------------------------------------------------------------------

Dipole Moment Calculation                       ... on
Quadrupole Moment Calculation                   ... off
Polarizability Calculation                      ... off
GBWName                                         ... config_2283.gbw
Electron density file                           ... config_2283.scfp
The origin for moment calculation is the CENTER OF MASS  = (129.962890, 52.261593 135.602376)

-------------
DIPOLE MOMENT
-------------
                                X             Y             Z
Electronic contribution:    -10.61852      27.43704       0.90815
Nuclear contribution   :     10.70988     -28.04935      -0.51577
                        -----------------------------------------
Total Dipole Moment    :      0.09136      -0.61231       0.39238
                        -----------------------------------------
Magnitude (a.u.)       :      0.73296
Magnitude (Debye)      :      1.86303



--------------------
Rotational spectrum 
--------------------
 
Rotational constants in cm-1:     0.019775     0.008274     0.006406 
Rotational constants in MHz :   592.841191   248.033895   192.055276 

 Dipole components along the rotational axes: 
x,y,z [a.u.] :     0.026151    -0.722189     0.122425 
x,y,z [Debye]:     0.066472    -1.835657     0.311180 

 

Timings for individual modules:

Sum of individual times         ...       29.384 sec (=   0.490 min)
GTO integral calculation        ...        0.726 sec (=   0.012 min)   2.5 %
SCF iterations                  ...       28.657 sec (=   0.478 min)  97.5 %
                             ****ORCA TERMINATED NORMALLY****
TOTAL RUN TIME: 0 days 0 hours 0 minutes 29 seconds 999 msec
