
                                 *****************
                                 * O   R   C   A *
                                 *****************

           --- An Ab Initio, DFT and Semiempirical electronic structure package ---

                  #######################################################
                  #                        -***-                        #
                  #          Department of theory and spectroscopy      #
                  #               Directorship: Frank Neese             #
                  #        Max Planck Institute fuer Kohlenforschung    #
                  #                Kaiser Wilhelm Platz 1               #
                  #                 D-45470 Muelheim/Ruhr               #
                  #                      Germany                        #
                  #                                                     #
                  #                  All rights reserved                #
                  #                        -***-                        #
                  #######################################################


                         Program Version 4.2.1 -  RELEASE  -


 With contributions from (in alphabetic order):
   Daniel Aravena         : Magnetic Suceptibility
   Michael Atanasov       : Ab Initio Ligand Field Theory (pilot matlab implementation)
   Alexander A. Auer      : GIAO ZORA, VPT2
   Ute Becker             : Parallelization
   Giovanni Bistoni       : ED, misc. LED, open-shell LED, HFLD
   Martin Brehm           : Molecular dynamics
   Dmytro Bykov           : SCF Hessian
   Vijay G. Chilkuri      : MRCI spin determinant printing, contributions to CSF-ICE
   Dipayan Datta          : RHF DLPNO-CCSD density
   Achintya Kumar Dutta   : EOM-CC, STEOM-CC
   Dmitry Ganyushin       : Spin-Orbit,Spin-Spin,Magnetic field MRCI
   Miquel Garcia          : C-PCM Hessian, Gaussian charge scheme
   Yang Guo               : DLPNO-NEVPT2, CIM, IAO-localization
   Andreas Hansen         : Spin unrestricted coupled pair/coupled cluster methods
   Benjamin Helmich-Paris : CASSCF linear response (MC-RPA)
   Lee Huntington         : MR-EOM, pCC
   Robert Izsak           : Overlap fitted RIJCOSX, COSX-SCS-MP3, EOM
   Christian Kollmar      : KDIIS, OOCD, Brueckner-CCSD(T), CCSD density
   Simone Kossmann        : Meta GGA functionals, TD-DFT gradient, OOMP2, MP2 Hessian
   Martin Krupicka        : AUTO-CI
   Lucas Lang             : DCDCAS
   Dagmar Lenk            : GEPOL surface, SMD
   Dimitrios Liakos       : Extrapolation schemes; Compound Job, initial MDCI parallelization
   Dimitrios Manganas     : Further ROCIS development; embedding schemes
   Dimitrios Pantazis     : SARC Basis sets
   Taras Petrenko         : DFT Hessian,TD-DFT gradient, ASA, ECA, R-Raman, ABS, FL, XAS/XES, NRVS
   Peter Pinski           : DLPNO-MP2, DLPNO-MP2 Gradient
   Christoph Reimann      : Effective Core Potentials
   Marius Retegan         : Local ZFS, SOC
   Christoph Riplinger    : Optimizer, TS searches, QM/MM, DLPNO-CCSD(T), (RO)-DLPNO pert. Triples
   Tobias Risthaus        : Range-separated hybrids, TD-DFT gradient, RPA, STAB
   Michael Roemelt        : Original ROCIS implementation
   Masaaki Saitow         : Open-shell DLPNO-CCSD energy and density
   Barbara Sandhoefer     : DKH picture change effects
   Avijit Sen             : IP-ROCIS
   Kantharuban Sivalingam : CASSCF convergence, NEVPT2, FIC-MRCI
   Bernardo de Souza      : ESD, SOC TD-DFT
   Georgi Stoychev        : AutoAux, RI-MP2 NMR
   Willem Van den Heuvel  : Paramagnetic NMR
   Boris Wezisla          : Elementary symmetry handling
   Frank Wennmohs         : Technical directorship


 We gratefully acknowledge several colleagues who have allowed us to
 interface, adapt or use parts of their codes:
   Stefan Grimme, W. Hujo, H. Kruse,             : VdW corrections, initial TS optimization,
                  C. Bannwarth                     DFT functionals, gCP, sTDA/sTD-DF
   Ed Valeev, F. Pavosevic, A. Kumar             : LibInt (2-el integral package), F12 methods
   Garnet Chan, S. Sharma, J. Yang, R. Olivares  : DMRG
   Ulf Ekstrom                                   : XCFun DFT Library
   Mihaly Kallay                                 : mrcc  (arbitrary order and MRCC methods)
   Andreas Klamt, Michael Diedenhofen            : otool_cosmo (COSMO solvation model)
   Jiri Pittner, Ondrej Demel                    : Mk-CCSD
   Frank Weinhold                                : gennbo (NPA and NBO analysis)
   Christopher J. Cramer and Donald G. Truhlar   : smd solvation model
   Lars Goerigk                                  : TD-DFT with DH, B97 family of functionals
   V. Asgeirsson, H. Jonsson                     : NEB implementation
   FAccTs GmbH                                   : IRC, NEB, NEB-TS, Multilevel, MM, QM/MM, CI optimization
   S Lehtola, MJT Oliveira, MAL Marques          : LibXC Library


 Your calculation uses the libint2 library for the computation of 2-el integrals
 For citations please refer to: http://libint.valeyev.net

 Your ORCA version has been built with support for libXC version: 4.2.3
 For citations please refer to: https://tddft.org/programs/libxc/

 This ORCA versions uses:
   CBLAS   interface :  Fast vector & matrix operations
   LAPACKE interface :  Fast linear algebra routines
   SCALAPACK package :  Parallel linear algebra routines


Your calculation utilizes the atom-pairwise dispersion correction
with the zero-damping scheme (D30)
Cite in your paper:
S.Grimme, J.Antony, S.Ehrlich and H.Krieg, J.Chem.Phys., 132, (2010), 154104 
   

XCFun DFT library Copyright 2009-2010 Ulf Ekstrom and contributors.
See http://admol.org/xcfun for more information. This is free soft-
ware; see the source code for copying conditions. There is ABSOLUTELY
NO WARRANTY; not even for MERCHANTABILITY or FITNESS FOR A PARTICULAR
PURPOSE. For details see the documentation. Scientific users of this 
library should cite U. Ekstrom, L. Visscher, R. Bast, A. J. Thorvald-
sen and K. Ruud; J.Chem.Theor.Comp. 2010, DOI: 10.1021/ct100117s
XCFun Version 0.99 
----- Orbital basis set information -----
Your calculation utilizes the basis: def2-SVP
   F. Weigend and R. Ahlrichs, Phys. Chem. Chem. Phys. 7, 3297 (2005).

================================================================================
                                        WARNINGS
                       Please study these warnings very carefully!
================================================================================


INFO   : the flag for use of LIBINT has been found!

================================================================================
                                       INPUT FILE
================================================================================
NAME = config_3214.inp
|  1> ! wB97X-D3 SP def2-SVP
|  2> %pal
|  3> nprocs 16
|  4> end
|  5> 
|  6> * xyz 0 1
|  7> S 	 45.6991 	 24.3009 	 83.1824 	 
|  8> C 	 45.9339 	 25.1718 	 81.6775 	 
|  9> C 	 46.4816 	 24.4534 	 80.6058 	 
| 10> C 	 46.5862 	 23.0905 	 80.9951 	 
| 11> C 	 46.1655 	 22.835 	 82.3129 	 
| 12> H 	 46.9414 	 22.3242 	 80.4375 	 
| 13> C 	 46.8076 	 24.9091 	 79.2299 	 
| 14> H 	 47.4465 	 24.126 	 78.8283 	 
| 15> H 	 47.3112 	 25.923 	 79.3315 	 
| 16> C 	 45.6256 	 25.0933 	 78.3448 	 
| 17> H 	 45.2743 	 24.1252 	 78.2083 	 
| 18> H 	 44.8723 	 25.7404 	 78.8677 	 
| 19> C 	 45.995 	 25.6398 	 76.9729 	 
| 20> H 	 45.1393 	 26.1072 	 76.4975 	 
| 21> H 	 46.642 	 26.4762 	 77.1915 	 
| 22> H 	 46.3887 	 24.9754 	 76.2233 	 
| 23> S 	 46.7221 	 21.1489 	 84.5713 	 
| 24> C 	 46.1048 	 19.4899 	 84.5414 	 
| 25> C 	 45.6852 	 19.1162 	 83.2974 	 
| 26> C 	 45.6953 	 20.267 	 82.3743 	 
| 27> C 	 46.0466 	 21.4969 	 82.9461 	 
| 28> H 	 45.4006 	 18.1276 	 83.1231 	 
| 29> C 	 45.2759 	 20.0636 	 80.9344 	 
| 30> H 	 44.9027 	 20.95 	 80.4544 	 
| 31> H 	 44.3624 	 19.4798 	 80.7699 	 
| 32> C 	 46.3437 	 19.4134 	 80.0477 	 
| 33> H 	 46.6485 	 18.3793 	 80.4693 	 
| 34> H 	 47.2362 	 20.0168 	 80.1058 	 
| 35> C 	 46.0581 	 19.1412 	 78.5799 	 
| 36> H 	 46.8368 	 18.6278 	 78.0047 	 
| 37> H 	 45.8911 	 20.0593 	 77.8669 	 
| 38> H 	 45.119 	 18.6463 	 78.4115 	 
| 39> H 	 45.8905 	 26.2298 	 81.5638 	 
| 40> H 	 46.1493 	 18.7533 	 85.3749 	 
| 41> *
| 42> 
| 43>                          ****END OF INPUT****
================================================================================

                       ****************************
                       * Single Point Calculation *
                       ****************************

---------------------------------
CARTESIAN COORDINATES (ANGSTROEM)
---------------------------------
  S     45.699100   24.300900   83.182400
  C     45.933900   25.171800   81.677500
  C     46.481600   24.453400   80.605800
  C     46.586200   23.090500   80.995100
  C     46.165500   22.835000   82.312900
  H     46.941400   22.324200   80.437500
  C     46.807600   24.909100   79.229900
  H     47.446500   24.126000   78.828300
  H     47.311200   25.923000   79.331500
  C     45.625600   25.093300   78.344800
  H     45.274300   24.125200   78.208300
  H     44.872300   25.740400   78.867700
  C     45.995000   25.639800   76.972900
  H     45.139300   26.107200   76.497500
  H     46.642000   26.476200   77.191500
  H     46.388700   24.975400   76.223300
  S     46.722100   21.148900   84.571300
  C     46.104800   19.489900   84.541400
  C     45.685200   19.116200   83.297400
  C     45.695300   20.267000   82.374300
  C     46.046600   21.496900   82.946100
  H     45.400600   18.127600   83.123100
  C     45.275900   20.063600   80.934400
  H     44.902700   20.950000   80.454400
  H     44.362400   19.479800   80.769900
  C     46.343700   19.413400   80.047700
  H     46.648500   18.379300   80.469300
  H     47.236200   20.016800   80.105800
  C     46.058100   19.141200   78.579900
  H     46.836800   18.627800   78.004700
  H     45.891100   20.059300   77.866900
  H     45.119000   18.646300   78.411500
  H     45.890500   26.229800   81.563800
  H     46.149300   18.753300   85.374900

----------------------------
CARTESIAN COORDINATES (A.U.)
----------------------------
  NO LB      ZA    FRAG     MASS         X           Y           Z
   0 S    16.0000    0    32.060   86.358784   45.922046  157.191955
   1 C     6.0000    0    12.011   86.802491   47.567808  154.348106
   2 C     6.0000    0    12.011   87.837494   46.210229  152.322887
   3 C     6.0000    0    12.011   88.035160   43.634721  153.058557
   4 C     6.0000    0    12.011   87.240152   43.151896  155.548838
   5 H     1.0000    0     1.008   88.706390   42.186624  152.004846
   6 C     6.0000    0    12.011   88.453545   47.071377  149.722813
   7 H     1.0000    0     1.008   89.660891   45.591533  148.963899
   8 H     1.0000    0     1.008   89.405211   48.987371  149.914809
   9 C     6.0000    0    12.011   86.219889   47.419465  148.050216
  10 H     1.0000    0     1.008   85.556028   45.590021  147.792268
  11 H     1.0000    0     1.008   84.796358   48.642307  149.038354
  12 C     6.0000    0    12.011   86.917954   48.452200  145.457701
  13 H     1.0000    0     1.008   85.300915   49.335458  144.559325
  14 H     1.0000    0     1.008   88.140606   50.032767  145.870795
  15 H     1.0000    0     1.008   87.661939   47.196666  144.041162
  16 S    16.0000    0    32.060   88.291973   39.965629  159.816596
  17 C     6.0000    0    12.011   87.125445   36.830573  159.760093
  18 C     6.0000    0    12.011   86.332516   36.124383  157.409274
  19 C     6.0000    0    12.011   86.351603   38.299080  155.664867
  20 C     6.0000    0    12.011   87.015463   40.623254  156.745413
  21 H     1.0000    0     1.008   85.794700   34.256199  157.079894
  22 C     6.0000    0    12.011   85.559051   37.914709  152.943851
  23 H     1.0000    0     1.008   84.853806   39.589763  152.036782
  24 H     1.0000    0     1.008   83.832787   36.811487  152.632991
  25 C     6.0000    0    12.011   87.576901   36.686009  151.268231
  26 H     1.0000    0     1.008   88.152890   34.731844  152.064939
  27 H     1.0000    0     1.008   89.263482   37.826270  151.378024
  28 C     6.0000    0    12.011   87.037195   36.171626  148.494491
  29 H     1.0000    0     1.008   88.508725   35.201440  147.407520
  30 H     1.0000    0     1.008   86.721611   37.906583  147.147116
  31 H     1.0000    0     1.008   85.262553   35.236400  148.176261
  32 H     1.0000    0     1.008   86.720477   49.567139  154.133244
  33 H     1.0000    0     1.008   87.209538   35.438601  161.335180

--------------------------------
INTERNAL COORDINATES (ANGSTROEM)
--------------------------------
 S      0   0   0     0.000000000000     0.00000000     0.00000000
 C      1   0   0     1.754514707832     0.00000000     0.00000000
 C      2   1   0     1.401647152460   116.98139707     0.00000000
 C      3   2   1     1.421264247070   108.10853442     6.17259219
 C      4   3   2     1.406721571598   114.12671156   358.36402615
 H      4   3   2     1.012077314240   126.94028013   179.79553270
 C      3   2   1     1.485610749826   129.54353049   180.66793850
 H      7   3   2     1.087529944415   104.48017221   165.17182791
 H      7   3   2     1.136630428064   106.74188365    43.48248009
 C      7   3   2     1.488104717417   114.48964119   285.11265276
 H     10   7   3     1.038875136867   103.37930942   292.18351849
 H     10   7   3     1.122329590628   109.11004333    51.30004583
 C     10   7   3     1.522244467883   112.81316915   176.55246184
 H     13  10   7     1.084753617187   110.99186257   201.32360166
 H     13  10   7     1.079796240038   103.94779626   311.59794165
 H     13  10   7     1.076256107997   119.65943064    79.60145686
 S      5   4   3     2.872822189068   141.72906919   213.47875026
 C     17   5   4     1.770376880780   117.97961992   281.56644197
 C     18  17   5     1.365009835129   112.27940104    13.92211026
 C     19  18  17     1.475315647582   110.76722053   352.19493528
 C     20  19  18     1.401078491734   115.53709838   356.58789399
 H     19  18  17     1.043411524759   119.70100739   173.09347355
 C     20  19  18     1.513466197178   119.24558264   179.39838803
 H     23  20  19     1.074887529000   114.21981367   154.77677042
 H     23  20  19     1.096524026185   116.43219492    45.81019894
 C     23  20  19     1.532707985886   114.47855998   282.10972959
 H     26  23  20     1.157589050570   110.59140687    58.50115888
 H     26  23  20     1.078899170451   107.93303350   303.92090628
 C     26  23  20     1.519900338838   120.24845136   179.65761433
 H     29  26  23     1.095813985127   117.21237391   183.08259791
 H     29  26  23     1.174378818780   118.23116799    65.32239294
 H     29  26  23     1.074799227763   113.45046896   311.31539138
 H      2   1   3     1.064976642936   125.39744897   193.52587732
 H     18  17   5     1.113230461315   126.40345744   186.47136341

---------------------------
INTERNAL COORDINATES (A.U.)
---------------------------
 S      0   0   0     0.000000000000     0.00000000     0.00000000
 C      1   0   0     3.315552295740     0.00000000     0.00000000
 C      2   1   0     2.648729254540   116.98139707     0.00000000
 C      3   2   1     2.685800190896   108.10853442     6.17259219
 C      4   3   2     2.658318517000   114.12671156   358.36402615
 H      4   3   2     1.912548950269   126.94028013   179.79553270
 C      3   2   1     2.807397458781   129.54353049   180.66793850
 H      7   3   2     2.055133757384   104.48017221   165.17182791
 H      7   3   2     2.147920224522   106.74188365    43.48248009
 C      7   3   2     2.812110374515   114.48964119   285.11265276
 H     10   7   3     1.963189496018   103.37930942   292.18351849
 H     10   7   3     2.120895558284   109.11004333    51.30004583
 C     10   7   3     2.876625153175   112.81316915   176.55246184
 H     13  10   7     2.049887259264   110.99186257   201.32360166
 H     13  10   7     2.040519174110   103.94779626   311.59794165
 H     13  10   7     2.033829294074   119.65943064    79.60145686
 S      5   4   3     5.428847168790   141.72906919   213.47875026
 C     17   5   4     3.345527458500   117.97961992   281.56644197
 C     18  17   5     2.579494758504   112.27940104    13.92211026
 C     19  18  17     2.787942535018   110.76722053   352.19493528
 C     20  19  18     2.647654641505   115.53709838   356.58789399
 H     19  18  17     1.971762026772   119.70100739   173.09347355
 C     20  19  18     2.860036625613   119.24558264   179.39838803
 H     23  20  19     2.031243054578   114.21981367   154.77677042
 H     23  20  19     2.072130108754   116.43219492    45.81019894
 C     23  20  19     2.896398336599   114.47855998   282.10972959
 H     26  23  20     2.187526281204   110.59140687    58.50115888
 H     26  23  20     2.038823958267   107.93303350   303.92090628
 C     26  23  20     2.872195391258   120.24845136   179.65761433
 H     29  26  23     2.070788325611   117.21237391   183.08259791
 H     29  26  23     2.219254344973   118.23116799    65.32239294
 H     29  26  23     2.031076189422   113.45046896   311.31539138
 H      2   1   3     2.012514194173   125.39744897   193.52587732
 H     18  17   5     2.103700695824   126.40345744   186.47136341

---------------------
BASIS SET INFORMATION
---------------------
There are 3 groups of distinct atoms

 Group   1 Type S   : 10s7p1d contracted to 4s3p1d pattern {5311/511/1}
 Group   2 Type C   : 7s4p1d contracted to 3s2p1d pattern {511/31/1}
 Group   3 Type H   : 4s1p contracted to 2s1p pattern {31/1}

Atom   0S    basis set group =>   1
Atom   1C    basis set group =>   2
Atom   2C    basis set group =>   2
Atom   3C    basis set group =>   2
Atom   4C    basis set group =>   2
Atom   5H    basis set group =>   3
Atom   6C    basis set group =>   2
Atom   7H    basis set group =>   3
Atom   8H    basis set group =>   3
Atom   9C    basis set group =>   2
Atom  10H    basis set group =>   3
Atom  11H    basis set group =>   3
Atom  12C    basis set group =>   2
Atom  13H    basis set group =>   3
Atom  14H    basis set group =>   3
Atom  15H    basis set group =>   3
Atom  16S    basis set group =>   1
Atom  17C    basis set group =>   2
Atom  18C    basis set group =>   2
Atom  19C    basis set group =>   2
Atom  20C    basis set group =>   2
Atom  21H    basis set group =>   3
Atom  22C    basis set group =>   2
Atom  23H    basis set group =>   3
Atom  24H    basis set group =>   3
Atom  25C    basis set group =>   2
Atom  26H    basis set group =>   3
Atom  27H    basis set group =>   3
Atom  28C    basis set group =>   2
Atom  29H    basis set group =>   3
Atom  30H    basis set group =>   3
Atom  31H    basis set group =>   3
Atom  32H    basis set group =>   3
Atom  33H    basis set group =>   3


           ************************************************************
           *        Program running with 16 parallel MPI-processes    *
           *              working on a common directory               *
           ************************************************************
------------------------------------------------------------------------------
                           ORCA GTO INTEGRAL CALCULATION
------------------------------------------------------------------------------

                         BASIS SET STATISTICS AND STARTUP INFO

 # of primitive gaussian shells          ...  294
 # of primitive gaussian functions       ...  534
 # of contracted shells                  ...  154
 # of contracted basis functions         ...  322
 Highest angular momentum                ...    2
 Maximum contraction depth               ...    5
 Integral package used                   ... LIBINT
 Integral threshhold            Thresh   ...  1.000e-10
 Primitive cut-off              TCut     ...  1.000e-11


------------------------------ INTEGRAL EVALUATION ----------------------------


 * One electron integrals 
 Pre-screening matrix                    ... done
 Shell pair data                         ... done (   0.003 sec)



           ************************************************************
           *        Program running with 16 parallel MPI-processes    *
           *              working on a common directory               *
           ************************************************************
-------------------------------------------------------------------------------
                                 ORCA SCF
-------------------------------------------------------------------------------

------------
SCF SETTINGS
------------
Hamiltonian:
 Density Functional     Method          .... DFT(GTOs)
 Exchange Functional    Exchange        .... WB97X-D3
 Correlation Functional Correlation     .... WB97X-D3
 Gradients option       PostSCFGGA      .... off
 Hybrid DFT is turned on
   Fraction HF Exchange ScalHFX         ....  0.195728
   Scaling of DF-GGA-X  ScalDFX         ....  0.000000
   Scaling of DF-GGA-C  ScalDFC         ....  1.000000
   Scaling of DF-LDA-C  ScalLDAC        ....  1.000000
   Perturbative correction              ....  0.000000
   Density functional embedding theory  .... OFF
 Long-range corrected/Screened/Range-Separated Hybrid DFT is turned on
   Amount of maximum screened exact exchange              ....  0.804272
   Range separation parameter mu (erf(mu*r12)/r12)        ....  0.250000


General Settings:
 Integral files         IntName         .... config_3214
 Hartree-Fock type      HFTyp           .... RHF
 Total Charge           Charge          ....    0
 Multiplicity           Mult            ....    1
 Number of Electrons    NEL             ....  134
 Basis Dimension        Dim             ....  322
 Nuclear Repulsion      ENuc            ....   1271.1621981453 Eh

Convergence Acceleration:
 DIIS                   CNVDIIS         .... on
   Start iteration      DIISMaxIt       ....    12
   Startup error        DIISStart       ....  0.200000
   # of expansion vecs  DIISMaxEq       ....     5
   Bias factor          DIISBfac        ....   1.050
   Max. coefficient     DIISMaxC        ....  10.000
 Newton-Raphson         CNVNR           .... off
 SOSCF                  CNVSOSCF        .... on
   Start iteration      SOSCFMaxIt      ....   150
   Startup grad/error   SOSCFStart      ....  0.003300
 Level Shifting         CNVShift        .... on
   Level shift para.    LevelShift      ....    0.2500
   Turn off err/grad.   ShiftErr        ....    0.0010
 Zerner damping         CNVZerner       .... off
 Static damping         CNVDamp         .... on
   Fraction old density DampFac         ....    0.7000
   Max. Damping (<1)    DampMax         ....    0.9800
   Min. Damping (>=0)   DampMin         ....    0.0000
   Turn off err/grad.   DampErr         ....    0.1000
 Fernandez-Rico         CNVRico         .... off

SCF Procedure:
 Maximum # iterations   MaxIter         ....   125
 SCF integral mode      SCFMode         .... Direct
   Integral package                     .... LIBINT
 Reset frequency        DirectResetFreq ....    20
 Integral Threshold     Thresh          ....  1.000e-10 Eh
 Primitive CutOff       TCut            ....  1.000e-11 Eh

Convergence Tolerance:
 Convergence Check Mode ConvCheckMode   .... Total+1el-Energy
 Convergence forced     ConvForced      .... 0
 Energy Change          TolE            ....  1.000e-06 Eh
 1-El. energy change                    ....  1.000e-03 Eh
 Orbital Gradient       TolG            ....  5.000e-05
 Orbital Rotation angle TolX            ....  5.000e-05
 DIIS Error             TolErr          ....  1.000e-06


Diagonalization of the overlap matrix:
Smallest eigenvalue                        ... 6.148e-04
Time for diagonalization                   ...    0.015 sec
Threshold for overlap eigenvalues          ... 1.000e-08
Number of eigenvalues below threshold      ... 0
Time for construction of square roots      ...    0.025 sec
Total time needed                          ...    0.040 sec

-------------------
DFT GRID GENERATION
-------------------

General Integration Accuracy     IntAcc      ...  4.340
Radial Grid Type                 RadialGrid  ... Gauss-Chebyshev
Angular Grid (max. acc.)         AngularGrid ... Lebedev-110
Angular grid pruning method      GridPruning ... 3 (G Style)
Weight generation scheme         WeightScheme... Becke
Basis function cutoff            BFCut       ...    1.0000e-10
Integration weight cutoff        WCut        ...    1.0000e-14
Grids for H and He will be reduced by one unit

# of grid points (after initial pruning)     ...  41088 (   0.0 sec)
# of grid points (after weights+screening)   ...  36995 (   0.0 sec)
nearest neighbour list constructed           ...    0.0 sec
Grid point re-assignment to atoms done       ...    0.0 sec
Grid point division into batches done        ...    0.0 sec
Reduced shell lists constructed in    0.1 sec

Total number of grid points                  ...    36995
Total number of batches                      ...      596
Average number of points per batch           ...       62
Average number of grid points per atom       ...     1088
Average number of shells per batch           ...    71.23 (46.25%)
Average number of basis functions per batch  ...   140.62 (43.67%)
Average number of large shells per batch     ...    44.36 (62.28%)
Average number of large basis fcns per batch ...    91.95 (65.39%)
Maximum spatial batch extension              ...  21.48, 13.27, 13.95 au
Average spatial batch extension              ...   0.27,  0.21,  0.22 au

Time for grid setup =    0.202 sec

------------------------------
INITIAL GUESS: MODEL POTENTIAL
------------------------------
Loading Hartree-Fock densities                     ... done
Calculating cut-offs                               ... done
Setting up the integral package                    ... done
Initializing the effective Hamiltonian             ... done
Starting the Coulomb interaction                   ... done (   0.0 sec)
Reading the grid                                   ... done
Mapping shells                                     ... done
Starting the XC term evaluation                    ... done (   0.0 sec)
  promolecular density results
     # of electrons  =    133.989435766
     EX              =   -126.702982046
     EC              =     -4.616046715
     EX+EC           =   -131.319028762
Transforming the Hamiltonian                       ... done (   0.0 sec)
Diagonalizing the Hamiltonian                      ... done (   0.0 sec)
Back transforming the eigenvectors                 ... done (   0.0 sec)
Now organizing SCF variables                       ... done
                      ------------------
                      INITIAL GUESS DONE (   0.4 sec)
                      ------------------
--------------
SCF ITERATIONS
--------------
ITER       Energy         Delta-E        Max-DP      RMS-DP      [F,P]     Damp
               ***  Starting incremental Fock matrix formation  ***
  0  -1339.3925497320   0.000000000000 0.06558119  0.00159719  0.1610060 0.7000
  1  -1339.5864955575  -0.193945825546 0.04413785  0.00116402  0.0974738 0.7000
                               ***Turning on DIIS***
  2  -1339.6793793125  -0.092883754992 0.09672417  0.00217342  0.0505471 0.0000
  3  -1339.8183599029  -0.138980590338 0.04697207  0.00099644  0.0402565 0.0000
  4  -1339.8496130083  -0.031253105394 0.00814257  0.00021378  0.0079913 0.0000
                      *** Initiating the SOSCF procedure ***
                           *** Shutting down DIIS ***
                      *** Re-Reading the Fockian *** 
                      *** Removing any level shift *** 
ITER      Energy       Delta-E        Grad      Rot      Max-DP    RMS-DP
  5  -1339.85061940  -0.0010063879  0.001555  0.001555  0.002956  0.000101
               *** Restarting incremental Fock matrix formation ***
  6  -1339.85083246  -0.0002130628  0.001230  0.003430  0.002629  0.000069
  7  -1339.85090346  -0.0000709995  0.000877  0.005070  0.003900  0.000067
  8  -1339.85092228  -0.0000188242  0.000432  0.000888  0.000846  0.000021
  9  -1339.85092815  -0.0000058665  0.000148  0.000356  0.000384  0.000010
 10  -1339.85092863  -0.0000004771  0.000073  0.000250  0.000189  0.000004
                 **** Energy Check signals convergence ****
              ***Rediagonalizing the Fockian in SOSCF/NRSCF***

               *****************************************************
               *                     SUCCESS                       *
               *           SCF CONVERGED AFTER  11 CYCLES          *
               *****************************************************

Setting up the final grid:

General Integration Accuracy     IntAcc      ...  4.670
Radial Grid Type                 RadialGrid  ... Gauss-Chebyshev
Angular Grid (max. acc.)         AngularGrid ... Lebedev-302
Angular grid pruning method      GridPruning ... 3 (G Style)
Weight generation scheme         WeightScheme... Becke
Basis function cutoff            BFCut       ...    1.0000e-10
Integration weight cutoff        WCut        ...    1.0000e-14
Grids for H and He will be reduced by one unit

# of grid points (after initial pruning)     ... 161752 (   0.0 sec)
# of grid points (after weights+screening)   ... 142786 (   0.1 sec)
nearest neighbour list constructed           ...    0.0 sec
Grid point re-assignment to atoms done       ...    0.0 sec
Grid point division into batches done        ...    0.5 sec
Reduced shell lists constructed in    0.6 sec

Total number of grid points                  ...   142786
Total number of batches                      ...     2251
Average number of points per batch           ...       63
Average number of grid points per atom       ...     4200
Average number of shells per batch           ...    65.44 (42.50%)
Average number of basis functions per batch  ...   129.61 (40.25%)
Average number of large shells per batch     ...    39.77 (60.77%)
Average number of large basis fcns per batch ...    82.12 (63.36%)
Maximum spatial batch extension              ...  17.04, 12.67, 15.11 au
Average spatial batch extension              ...   0.16,  0.15,  0.16 au

Final grid set up in    1.0 sec
Final integration                            ... done (   0.3 sec)
Change in XC energy                          ...     0.007025041
Integrated number of electrons               ...   133.999941248
Previous integrated no of electrons          ...   133.999111354

----------------
TOTAL SCF ENERGY
----------------

Total Energy       :        -1339.84390389 Eh          -36459.00616 eV

Components:
Nuclear Repulsion  :         1271.16219815 Eh           34590.08194 eV
Electronic Energy  :        -2611.00610204 Eh          -71049.08810 eV
One Electron Energy:        -4358.71876522 Eh         -118606.76745 eV
Two Electron Energy:         1747.71266318 Eh           47557.67935 eV

Virial components:
Potential Energy   :        -2671.24644166 Eh          -72688.31108 eV
Kinetic Energy     :         1331.40253777 Eh           36229.30491 eV
Virial Ratio       :            2.00634021


DFT components:
N(Alpha)           :       66.999970623928 electrons
N(Beta)            :       66.999970623928 electrons
N(Total)           :      133.999941247856 electrons
E(XC)              :      -94.231207817430 Eh       
DFET-embed. en.    :        0.000000000000 Eh       

---------------
SCF CONVERGENCE
---------------

  Last Energy change         ...   -3.0584e-07  Tolerance :   1.0000e-06
  Last MAX-Density change    ...    3.6375e-05  Tolerance :   1.0000e-05
  Last RMS-Density change    ...    8.2285e-07  Tolerance :   1.0000e-06
  Last Orbital Gradient      ...    9.0810e-06  Tolerance :   5.0000e-05
  Last Orbital Rotation      ...    2.4229e-05  Tolerance :   5.0000e-05

             **** THE GBW FILE WAS UPDATED (config_3214.gbw) ****
             **** DENSITY FILE WAS UPDATED (config_3214.scfp) ****
             **** ENERGY FILE WAS UPDATED (config_3214.en.tmp) ****
             **** THE GBW FILE WAS UPDATED (config_3214.gbw) ****
             **** DENSITY FILE WAS UPDATED (config_3214.scfp) ****
----------------
ORBITAL ENERGIES
----------------

  NO   OCC          E(Eh)            E(eV) 
   0   2.0000     -88.975233     -2421.1392 
   1   2.0000     -88.964055     -2420.8350 
   2   2.0000     -10.335178      -281.2345 
   3   2.0000     -10.335093      -281.2322 
   4   2.0000     -10.321786      -280.8701 
   5   2.0000     -10.314043      -280.6594 
   6   2.0000     -10.311533      -280.5911 
   7   2.0000     -10.301155      -280.3087 
   8   2.0000     -10.294563      -280.1293 
   9   2.0000     -10.294522      -280.1282 
  10   2.0000     -10.294306      -280.1223 
  11   2.0000     -10.290874      -280.0289 
  12   2.0000     -10.289508      -279.9918 
  13   2.0000     -10.287068      -279.9253 
  14   2.0000     -10.282713      -279.8068 
  15   2.0000     -10.275654      -279.6148 
  16   2.0000      -8.089082      -220.1151 
  17   2.0000      -8.077932      -219.8117 
  18   2.0000      -6.047513      -164.5612 
  19   2.0000      -6.043884      -164.4624 
  20   2.0000      -6.039822      -164.3519 
  21   2.0000      -6.036696      -164.2668 
  22   2.0000      -6.032725      -164.1588 
  23   2.0000      -6.028302      -164.0384 
  24   2.0000      -0.999951       -27.2101 
  25   2.0000      -0.979240       -26.6465 
  26   2.0000      -0.925313       -25.1790 
  27   2.0000      -0.906786       -24.6749 
  28   2.0000      -0.868084       -23.6218 
  29   2.0000      -0.857345       -23.3295 
  30   2.0000      -0.843546       -22.9540 
  31   2.0000      -0.816132       -22.2081 
  32   2.0000      -0.786519       -21.4023 
  33   2.0000      -0.772524       -21.0214 
  34   2.0000      -0.704468       -19.1696 
  35   2.0000      -0.703738       -19.1497 
  36   2.0000      -0.694072       -18.8867 
  37   2.0000      -0.661618       -18.0035 
  38   2.0000      -0.642719       -17.4893 
  39   2.0000      -0.624585       -16.9958 
  40   2.0000      -0.598444       -16.2845 
  41   2.0000      -0.585215       -15.9245 
  42   2.0000      -0.571335       -15.5468 
  43   2.0000      -0.555102       -15.1051 
  44   2.0000      -0.529423       -14.4063 
  45   2.0000      -0.524727       -14.2785 
  46   2.0000      -0.517829       -14.0908 
  47   2.0000      -0.510889       -13.9020 
  48   2.0000      -0.508556       -13.8385 
  49   2.0000      -0.496303       -13.5051 
  50   2.0000      -0.486719       -13.2443 
  51   2.0000      -0.480230       -13.0677 
  52   2.0000      -0.470915       -12.8142 
  53   2.0000      -0.468223       -12.7410 
  54   2.0000      -0.457158       -12.4399 
  55   2.0000      -0.455177       -12.3860 
  56   2.0000      -0.442152       -12.0316 
  57   2.0000      -0.439015       -11.9462 
  58   2.0000      -0.431602       -11.7445 
  59   2.0000      -0.429921       -11.6987 
  60   2.0000      -0.423801       -11.5322 
  61   2.0000      -0.420970       -11.4552 
  62   2.0000      -0.403999       -10.9934 
  63   2.0000      -0.348266        -9.4768 
  64   2.0000      -0.336552        -9.1581 
  65   2.0000      -0.326705        -8.8901 
  66   2.0000      -0.289117        -7.8673 
  67   0.0000       0.022061         0.6003 
  68   0.0000       0.070094         1.9074 
  69   0.0000       0.101468         2.7611 
  70   0.0000       0.114869         3.1257 
  71   0.0000       0.125593         3.4176 
  72   0.0000       0.127745         3.4761 
  73   0.0000       0.145403         3.9566 
  74   0.0000       0.154214         4.1964 
  75   0.0000       0.160240         4.3604 
  76   0.0000       0.168057         4.5731 
  77   0.0000       0.178294         4.8516 
  78   0.0000       0.180141         4.9019 
  79   0.0000       0.191261         5.2045 
  80   0.0000       0.195392         5.3169 
  81   0.0000       0.203777         5.5451 
  82   0.0000       0.211166         5.7461 
  83   0.0000       0.213693         5.8149 
  84   0.0000       0.219639         5.9767 
  85   0.0000       0.226600         6.1661 
  86   0.0000       0.233701         6.3593 
  87   0.0000       0.241144         6.5619 
  88   0.0000       0.243538         6.6270 
  89   0.0000       0.252510         6.8711 
  90   0.0000       0.254588         6.9277 
  91   0.0000       0.276889         7.5345 
  92   0.0000       0.284122         7.7314 
  93   0.0000       0.302986         8.2447 
  94   0.0000       0.310370         8.4456 
  95   0.0000       0.323352         8.7988 
  96   0.0000       0.337164         9.1747 
  97   0.0000       0.341544         9.2939 
  98   0.0000       0.344640         9.3781 
  99   0.0000       0.357228         9.7207 
 100   0.0000       0.368992        10.0408 
 101   0.0000       0.395037        10.7495 
 102   0.0000       0.413100        11.2410 
 103   0.0000       0.417752        11.3676 
 104   0.0000       0.426463        11.6046 
 105   0.0000       0.448540        12.2054 
 106   0.0000       0.467703        12.7268 
 107   0.0000       0.480378        13.0718 
 108   0.0000       0.488854        13.3024 
 109   0.0000       0.496961        13.5230 
 110   0.0000       0.502853        13.6833 
 111   0.0000       0.512620        13.9491 
 112   0.0000       0.516542        14.0558 
 113   0.0000       0.522507        14.2181 
 114   0.0000       0.527088        14.3428 
 115   0.0000       0.532231        14.4828 
 116   0.0000       0.538736        14.6598 
 117   0.0000       0.556804        15.1514 
 118   0.0000       0.568123        15.4594 
 119   0.0000       0.573304        15.6004 
 120   0.0000       0.581823        15.8322 
 121   0.0000       0.594457        16.1760 
 122   0.0000       0.596144        16.2219 
 123   0.0000       0.606673        16.5084 
 124   0.0000       0.612347        16.6628 
 125   0.0000       0.624847        17.0029 
 126   0.0000       0.633375        17.2350 
 127   0.0000       0.649795        17.6818 
 128   0.0000       0.652423        17.7533 
 129   0.0000       0.665218        18.1015 
 130   0.0000       0.674243        18.3471 
 131   0.0000       0.680561        18.5190 
 132   0.0000       0.684665        18.6307 
 133   0.0000       0.696611        18.9558 
 134   0.0000       0.703069        19.1315 
 135   0.0000       0.713308        19.4101 
 136   0.0000       0.714284        19.4366 
 137   0.0000       0.723120        19.6771 
 138   0.0000       0.730721        19.8839 
 139   0.0000       0.736086        20.0299 
 140   0.0000       0.740988        20.1633 
 141   0.0000       0.746004        20.2998 
 142   0.0000       0.750637        20.4259 
 143   0.0000       0.757451        20.6113 
 144   0.0000       0.764526        20.8038 
 145   0.0000       0.766609        20.8605 
 146   0.0000       0.771330        20.9890 
 147   0.0000       0.773928        21.0597 
 148   0.0000       0.780926        21.2501 
 149   0.0000       0.785527        21.3753 
 150   0.0000       0.788308        21.4509 
 151   0.0000       0.790697        21.5160 
 152   0.0000       0.794575        21.6215 
 153   0.0000       0.797085        21.6898 
 154   0.0000       0.800526        21.7834 
 155   0.0000       0.802989        21.8505 
 156   0.0000       0.807621        21.9765 
 157   0.0000       0.810720        22.0608 
 158   0.0000       0.823432        22.4067 
 159   0.0000       0.825712        22.4688 
 160   0.0000       0.830113        22.5885 
 161   0.0000       0.835402        22.7324 
 162   0.0000       0.842384        22.9224 
 163   0.0000       0.849775        23.1236 
 164   0.0000       0.851787        23.1783 
 165   0.0000       0.868166        23.6240 
 166   0.0000       0.872801        23.7501 
 167   0.0000       0.887879        24.1604 
 168   0.0000       0.898087        24.4382 
 169   0.0000       0.904389        24.6097 
 170   0.0000       0.913646        24.8616 
 171   0.0000       0.915139        24.9022 
 172   0.0000       0.927459        25.2374 
 173   0.0000       0.933385        25.3987 
 174   0.0000       0.941454        25.6183 
 175   0.0000       0.980247        26.6739 
 176   0.0000       0.984319        26.7847 
 177   0.0000       0.999558        27.1994 
 178   0.0000       1.036086        28.1933 
 179   0.0000       1.055002        28.7081 
 180   0.0000       1.061593        28.8874 
 181   0.0000       1.068045        29.0630 
 182   0.0000       1.087911        29.6036 
 183   0.0000       1.105204        30.0741 
 184   0.0000       1.106976        30.1223 
 185   0.0000       1.134195        30.8630 
 186   0.0000       1.138713        30.9860 
 187   0.0000       1.162736        31.6397 
 188   0.0000       1.171640        31.8819 
 189   0.0000       1.196158        32.5491 
 190   0.0000       1.221836        33.2478 
 191   0.0000       1.240681        33.7606 
 192   0.0000       1.250872        34.0380 
 193   0.0000       1.261547        34.3284 
 194   0.0000       1.277692        34.7678 
 195   0.0000       1.286857        35.0171 
 196   0.0000       1.313218        35.7345 
 197   0.0000       1.357966        36.9521 
 198   0.0000       1.368811        37.2472 
 199   0.0000       1.375384        37.4261 
 200   0.0000       1.386504        37.7287 
 201   0.0000       1.400989        38.1229 
 202   0.0000       1.417694        38.5774 
 203   0.0000       1.435417        39.0597 
 204   0.0000       1.452181        39.5159 
 205   0.0000       1.465142        39.8685 
 206   0.0000       1.473109        40.0853 
 207   0.0000       1.494001        40.6538 
 208   0.0000       1.513866        41.1944 
 209   0.0000       1.537664        41.8420 
 210   0.0000       1.584589        43.1189 
 211   0.0000       1.598543        43.4986 
 212   0.0000       1.621794        44.1313 
 213   0.0000       1.643610        44.7249 
 214   0.0000       1.654555        45.0227 
 215   0.0000       1.662943        45.2510 
 216   0.0000       1.666779        45.3554 
 217   0.0000       1.697856        46.2010 
 218   0.0000       1.746471        47.5239 
 219   0.0000       1.785118        48.5755 
 220   0.0000       1.790025        48.7091 
 221   0.0000       1.795011        48.8447 
 222   0.0000       1.816839        49.4387 
 223   0.0000       1.822231        49.5854 
 224   0.0000       1.827550        49.7302 
 225   0.0000       1.832976        49.8778 
 226   0.0000       1.843514        50.1646 
 227   0.0000       1.853133        50.4263 
 228   0.0000       1.856092        50.5068 
 229   0.0000       1.857273        50.5390 
 230   0.0000       1.866304        50.7847 
 231   0.0000       1.867805        50.8256 
 232   0.0000       1.874468        51.0069 
 233   0.0000       1.886177        51.3255 
 234   0.0000       1.898375        51.6574 
 235   0.0000       1.905234        51.8440 
 236   0.0000       1.911647        52.0186 
 237   0.0000       1.913684        52.0740 
 238   0.0000       1.931746        52.5655 
 239   0.0000       1.941326        52.8262 
 240   0.0000       1.947574        52.9962 
 241   0.0000       1.951788        53.1108 
 242   0.0000       1.958046        53.2812 
 243   0.0000       1.968793        53.5736 
 244   0.0000       1.976517        53.7838 
 245   0.0000       1.981750        53.9262 
 246   0.0000       1.984067        53.9892 
 247   0.0000       2.011073        54.7241 
 248   0.0000       2.019489        54.9531 
 249   0.0000       2.036053        55.4038 
 250   0.0000       2.037282        55.4373 
 251   0.0000       2.044384        55.6305 
 252   0.0000       2.060793        56.0770 
 253   0.0000       2.088953        56.8433 
 254   0.0000       2.098076        57.0916 
 255   0.0000       2.113649        57.5153 
 256   0.0000       2.129605        57.9495 
 257   0.0000       2.134768        58.0900 
 258   0.0000       2.140636        58.2497 
 259   0.0000       2.144933        58.3666 
 260   0.0000       2.171809        59.0979 
 261   0.0000       2.181336        59.3572 
 262   0.0000       2.196723        59.7759 
 263   0.0000       2.209883        60.1340 
 264   0.0000       2.229225        60.6603 
 265   0.0000       2.231785        60.7300 
 266   0.0000       2.252804        61.3019 
 267   0.0000       2.258344        61.4527 
 268   0.0000       2.276293        61.9411 
 269   0.0000       2.306123        62.7528 
 270   0.0000       2.344285        63.7912 
 271   0.0000       2.351297        63.9820 
 272   0.0000       2.381108        64.7932 
 273   0.0000       2.390304        65.0435 
 274   0.0000       2.405913        65.4682 
 275   0.0000       2.409631        65.5694 
 276   0.0000       2.429689        66.1152 
 277   0.0000       2.449322        66.6494 
 278   0.0000       2.460552        66.9550 
 279   0.0000       2.481110        67.5144 
 280   0.0000       2.489262        67.7363 
 281   0.0000       2.501826        68.0782 
 282   0.0000       2.517363        68.5009 
 283   0.0000       2.517702        68.5102 
 284   0.0000       2.528027        68.7911 
 285   0.0000       2.532881        68.9232 
 286   0.0000       2.547891        69.3316 
 287   0.0000       2.574181        70.0470 
 288   0.0000       2.579097        70.1808 
 289   0.0000       2.602664        70.8221 
 290   0.0000       2.644867        71.9705 
 291   0.0000       2.656660        72.2914 
 292   0.0000       2.682278        72.9885 
 293   0.0000       2.684049        73.0367 
 294   0.0000       2.712558        73.8124 
 295   0.0000       2.727720        74.2250 
 296   0.0000       2.761855        75.1539 
 297   0.0000       2.783162        75.7337 
 298   0.0000       2.806914        76.3800 
 299   0.0000       2.823212        76.8235 
 300   0.0000       2.843750        77.3824 
 301   0.0000       2.855478        77.7015 
 302   0.0000       2.914462        79.3065 
 303   0.0000       2.948427        80.2308 
 304   0.0000       2.968822        80.7858 
 305   0.0000       2.974038        80.9277 
 306   0.0000       2.989292        81.3428 
 307   0.0000       3.008473        81.8647 
 308   0.0000       3.011324        81.9423 
 309   0.0000       3.055193        83.1360 
 310   0.0000       3.075483        83.6882 
 311   0.0000       3.077986        83.7563 
 312   0.0000       3.098735        84.3209 
 313   0.0000       3.121424        84.9383 
 314   0.0000       3.135945        85.3334 
 315   0.0000       3.148629        85.6786 
 316   0.0000       3.173462        86.3543 
 317   0.0000       3.228537        87.8529 
 318   0.0000       3.249081        88.4120 
 319   0.0000       3.284435        89.3740 
 320   0.0000       3.401690        92.5647 
 321   0.0000       3.476761        94.6075 

                    ********************************
                    * MULLIKEN POPULATION ANALYSIS *
                    ********************************

-----------------------
MULLIKEN ATOMIC CHARGES
-----------------------
   0 S :    0.135343
   1 C :   -0.101057
   2 C :   -0.088198
   3 C :    0.067902
   4 C :   -0.158204
   5 H :   -0.054360
   6 C :    0.052703
   7 H :    0.026083
   8 H :    0.033134
   9 C :   -0.051296
  10 H :    0.005906
  11 H :    0.037423
  12 C :   -0.014881
  13 H :    0.025413
  14 H :    0.014235
  15 H :    0.038939
  16 S :    0.082645
  17 C :   -0.098863
  18 C :    0.007454
  19 C :   -0.041903
  20 C :   -0.103665
  21 H :    0.002071
  22 C :    0.054190
  23 H :    0.015222
  24 H :    0.014690
  25 C :   -0.083955
  26 H :    0.036971
  27 H :    0.028655
  28 C :   -0.069466
  29 H :    0.042620
  30 H :    0.021765
  31 H :    0.024015
  32 H :    0.027878
  33 H :    0.070592
Sum of atomic charges:   -0.0000000

--------------------------------
MULLIKEN REDUCED ORBITAL CHARGES
--------------------------------
  0 S s       :     5.847488  s :     5.847488
      pz      :     3.278698  p :     9.913697
      px      :     3.643847
      py      :     2.991152
      dz2     :     0.019930  d :     0.103472
      dxz     :     0.011727
      dyz     :     0.037454
      dx2y2   :     0.012223
      dxy     :     0.022138
  1 C s       :     3.153555  s :     3.153555
      pz      :     0.877262  p :     2.913498
      px      :     1.105732
      py      :     0.930504
      dz2     :     0.009559  d :     0.034005
      dxz     :     0.006425
      dyz     :     0.009057
      dx2y2   :     0.005913
      dxy     :     0.003051
  2 C s       :     3.085286  s :     3.085286
      pz      :     0.962030  p :     2.958313
      px      :     0.987692
      py      :     1.008591
      dz2     :     0.011082  d :     0.044599
      dxz     :     0.007654
      dyz     :     0.012050
      dx2y2   :     0.006891
      dxy     :     0.006922
  3 C s       :     3.184816  s :     3.184816
      pz      :     0.882346  p :     2.712863
      px      :     0.979836
      py      :     0.850681
      dz2     :     0.008265  d :     0.034419
      dxz     :     0.005419
      dyz     :     0.009792
      dx2y2   :     0.005017
      dxy     :     0.005926
  4 C s       :     3.082850  s :     3.082850
      pz      :     0.975522  p :     3.032743
      px      :     1.083444
      py      :     0.973777
      dz2     :     0.007994  d :     0.042611
      dxz     :     0.006646
      dyz     :     0.014077
      dx2y2   :     0.006685
      dxy     :     0.007209
  5 H s       :     1.026634  s :     1.026634
      pz      :     0.008280  p :     0.027726
      px      :     0.007576
      py      :     0.011870
  6 C s       :     2.960040  s :     2.960040
      pz      :     0.931444  p :     2.949101
      px      :     1.035626
      py      :     0.982031
      dz2     :     0.009938  d :     0.038156
      dxz     :     0.008596
      dyz     :     0.005992
      dx2y2   :     0.004296
      dxy     :     0.009335
  7 H s       :     0.951137  s :     0.951137
      pz      :     0.005740  p :     0.022780
      px      :     0.007944
      py      :     0.009095
  8 H s       :     0.946100  s :     0.946100
      pz      :     0.003711  p :     0.020766
      px      :     0.005763
      py      :     0.011292
  9 C s       :     3.029350  s :     3.029350
      pz      :     0.958008  p :     2.982795
      px      :     1.004848
      py      :     1.019940
      dz2     :     0.008873  d :     0.039151
      dxz     :     0.009921
      dyz     :     0.006147
      dx2y2   :     0.006060
      dxy     :     0.008150
 10 H s       :     0.968348  s :     0.968348
      pz      :     0.005363  p :     0.025747
      px      :     0.006639
      py      :     0.013745
 11 H s       :     0.941301  s :     0.941301
      pz      :     0.005457  p :     0.021277
      px      :     0.008448
      py      :     0.007372
 12 C s       :     2.978485  s :     2.978485
      pz      :     0.957778  p :     3.007524
      px      :     1.034282
      py      :     1.015464
      dz2     :     0.006176  d :     0.028872
      dxz     :     0.006338
      dyz     :     0.007138
      dx2y2   :     0.001793
      dxy     :     0.007427
 13 H s       :     0.950103  s :     0.950103
      pz      :     0.006264  p :     0.024484
      px      :     0.011070
      py      :     0.007150
 14 H s       :     0.960791  s :     0.960791
      pz      :     0.005293  p :     0.024974
      px      :     0.008963
      py      :     0.010718
 15 H s       :     0.936705  s :     0.936705
      pz      :     0.009079  p :     0.024356
      px      :     0.006963
      py      :     0.008314
 16 S s       :     5.852288  s :     5.852288
      pz      :     3.265258  p :     9.966246
      px      :     3.569224
      py      :     3.131764
      dz2     :     0.028766  d :     0.098821
      dxz     :     0.017924
      dyz     :     0.012917
      dx2y2   :     0.017628
      dxy     :     0.021586
 17 C s       :     3.158440  s :     3.158440
      pz      :     0.989727  p :     2.905392
      px      :     1.029961
      py      :     0.885704
      dz2     :     0.009165  d :     0.035030
      dxz     :     0.005030
      dyz     :     0.009742
      dx2y2   :     0.005712
      dxy     :     0.005382
 18 C s       :     3.175810  s :     3.175810
      pz      :     0.925550  p :     2.782945
      px      :     1.004042
      py      :     0.853353
      dz2     :     0.009169  d :     0.033791
      dxz     :     0.006563
      dyz     :     0.009437
      dx2y2   :     0.004901
      dxy     :     0.003722
 19 C s       :     3.075666  s :     3.075666
      pz      :     0.952474  p :     2.925231
      px      :     1.011547
      py      :     0.961210
      dz2     :     0.009237  d :     0.041007
      dxz     :     0.005852
      dyz     :     0.013183
      dx2y2   :     0.005398
      dxy     :     0.007338
 20 C s       :     3.075081  s :     3.075081
      pz      :     0.947484  p :     2.987390
      px      :     1.052146
      py      :     0.987760
      dz2     :     0.009978  d :     0.041194
      dxz     :     0.006139
      dyz     :     0.009436
      dx2y2   :     0.007392
      dxy     :     0.008250
 21 H s       :     0.972026  s :     0.972026
      pz      :     0.004267  p :     0.025903
      px      :     0.006695
      py      :     0.014941
 22 C s       :     2.954770  s :     2.954770
      pz      :     0.933605  p :     2.955663
      px      :     0.999627
      py      :     1.022430
      dz2     :     0.008541  d :     0.035378
      dxz     :     0.007632
      dyz     :     0.006386
      dx2y2   :     0.004706
      dxy     :     0.008113
 23 H s       :     0.959982  s :     0.959982
      pz      :     0.005557  p :     0.024796
      px      :     0.006561
      py      :     0.012678
 24 H s       :     0.961684  s :     0.961684
      pz      :     0.003757  p :     0.023625
      px      :     0.011170
      py      :     0.008699
 25 C s       :     3.068077  s :     3.068077
      pz      :     0.950043  p :     2.979189
      px      :     1.021604
      py      :     1.007542
      dz2     :     0.009918  d :     0.036690
      dxz     :     0.006526
      dyz     :     0.006614
      dx2y2   :     0.005296
      dxy     :     0.008336
 26 H s       :     0.942758  s :     0.942758
      pz      :     0.004581  p :     0.020271
      px      :     0.004194
      py      :     0.011496
 27 H s       :     0.948186  s :     0.948186
      pz      :     0.004146  p :     0.023159
      px      :     0.011063
      py      :     0.007950
 28 C s       :     3.032421  s :     3.032421
      pz      :     0.949536  p :     3.008647
      px      :     1.014214
      py      :     1.044898
      dz2     :     0.006393  d :     0.028398
      dxz     :     0.005577
      dyz     :     0.008110
      dx2y2   :     0.002837
      dxy     :     0.005481
 29 H s       :     0.933624  s :     0.933624
      pz      :     0.006516  p :     0.023756
      px      :     0.009587
      py      :     0.007654
 30 H s       :     0.957185  s :     0.957185
      pz      :     0.006346  p :     0.021050
      px      :     0.005059
      py      :     0.009645
 31 H s       :     0.951162  s :     0.951162
      pz      :     0.004591  p :     0.024823
      px      :     0.012311
      py      :     0.007921
 32 H s       :     0.947344  s :     0.947344
      pz      :     0.003453  p :     0.024778
      px      :     0.005769
      py      :     0.015555
 33 H s       :     0.906510  s :     0.906510
      pz      :     0.010166  p :     0.022898
      px      :     0.004460
      py      :     0.008272


                     *******************************
                     * LOEWDIN POPULATION ANALYSIS *
                     *******************************

----------------------
LOEWDIN ATOMIC CHARGES
----------------------
   0 S :    0.412783
   1 C :   -0.193435
   2 C :   -0.057059
   3 C :   -0.041022
   4 C :   -0.186021
   5 H :    0.010741
   6 C :   -0.034450
   7 H :    0.033242
   8 H :    0.035924
   9 C :   -0.036518
  10 H :    0.015323
  11 H :    0.032178
  12 C :   -0.064226
  13 H :    0.028531
  14 H :    0.022643
  15 H :    0.025771
  16 S :    0.365945
  17 C :   -0.176300
  18 C :   -0.061078
  19 C :   -0.048005
  20 C :   -0.184808
  21 H :    0.024654
  22 C :   -0.043310
  23 H :    0.027095
  24 H :    0.030199
  25 C :   -0.046356
  26 H :    0.033748
  27 H :    0.017967
  28 C :   -0.080292
  29 H :    0.030576
  30 H :    0.028846
  31 H :    0.019630
  32 H :    0.017437
  33 H :    0.039647

-------------------------------
LOEWDIN REDUCED ORBITAL CHARGES
-------------------------------
  0 S s       :     5.521843  s :     5.521843
      pz      :     3.320851  p :     9.937848
      px      :     3.606520
      py      :     3.010476
      dz2     :     0.023353  d :     0.127526
      dxz     :     0.012037
      dyz     :     0.048378
      dx2y2   :     0.016145
      dxy     :     0.027614
  1 C s       :     2.927568  s :     2.927568
      pz      :     1.015289  p :     3.185437
      px      :     1.109428
      py      :     1.060720
      dz2     :     0.023608  d :     0.080430
      dxz     :     0.014355
      dyz     :     0.023399
      dx2y2   :     0.012718
      dxy     :     0.006350
  2 C s       :     2.858596  s :     2.858596
      pz      :     1.049025  p :     3.088285
      px      :     0.978935
      py      :     1.060325
      dz2     :     0.028395  d :     0.110179
      dxz     :     0.017052
      dyz     :     0.032630
      dx2y2   :     0.017231
      dxy     :     0.014871
  3 C s       :     2.849382  s :     2.849382
      pz      :     1.044508  p :     3.099282
      px      :     1.009624
      py      :     1.045150
      dz2     :     0.024855  d :     0.092358
      dxz     :     0.012994
      dyz     :     0.027768
      dx2y2   :     0.013659
      dxy     :     0.013082
  4 C s       :     2.918435  s :     2.918435
      pz      :     1.076440  p :     3.168313
      px      :     1.085389
      py      :     1.006484
      dz2     :     0.020993  d :     0.099272
      dxz     :     0.013956
      dyz     :     0.034935
      dx2y2   :     0.014859
      dxy     :     0.014530
  5 H s       :     0.904874  s :     0.904874
      pz      :     0.025658  p :     0.084384
      px      :     0.023574
      py      :     0.035152
  6 C s       :     2.824434  s :     2.824434
      pz      :     1.014933  p :     3.113672
      px      :     1.056694
      py      :     1.042044
      dz2     :     0.025686  d :     0.096343
      dxz     :     0.022186
      dyz     :     0.014800
      dx2y2   :     0.010665
      dxy     :     0.023006
  7 H s       :     0.899226  s :     0.899226
      pz      :     0.017108  p :     0.067532
      px      :     0.023619
      py      :     0.026805
  8 H s       :     0.904380  s :     0.904380
      pz      :     0.011074  p :     0.059695
      px      :     0.016755
      py      :     0.031866
  9 C s       :     2.818585  s :     2.818585
      pz      :     1.013369  p :     3.121853
      px      :     1.042173
      py      :     1.066312
      dz2     :     0.021314  d :     0.096080
      dxz     :     0.025688
      dyz     :     0.014861
      dx2y2   :     0.015254
      dxy     :     0.018962
 10 H s       :     0.906100  s :     0.906100
      pz      :     0.018048  p :     0.078577
      px      :     0.020766
      py      :     0.039763
 11 H s       :     0.907009  s :     0.907009
      pz      :     0.016594  p :     0.060813
      px      :     0.024568
      py      :     0.019651
 12 C s       :     2.822952  s :     2.822952
      pz      :     1.023084  p :     3.167725
      px      :     1.081968
      py      :     1.062673
      dz2     :     0.015882  d :     0.073549
      dxz     :     0.015486
      dyz     :     0.018834
      dx2y2   :     0.004244
      dxy     :     0.019103
 13 H s       :     0.903632  s :     0.903632
      pz      :     0.018213  p :     0.067837
      px      :     0.030200
      py      :     0.019424
 14 H s       :     0.907967  s :     0.907967
      pz      :     0.014940  p :     0.069390
      px      :     0.024015
      py      :     0.030436
 15 H s       :     0.904983  s :     0.904983
      pz      :     0.027111  p :     0.069247
      px      :     0.018465
      py      :     0.023670
 16 S s       :     5.532618  s :     5.532618
      pz      :     3.277524  p :     9.980575
      px      :     3.554897
      py      :     3.148153
      dz2     :     0.036102  d :     0.120862
      dxz     :     0.021414
      dyz     :     0.015644
      dx2y2   :     0.021604
      dxy     :     0.026099
 17 C s       :     2.941542  s :     2.941542
      pz      :     1.095759  p :     3.153824
      px      :     1.051720
      py      :     1.006345
      dz2     :     0.023526  d :     0.080934
      dxz     :     0.010216
      dyz     :     0.024149
      dx2y2   :     0.011617
      dxy     :     0.011426
 18 C s       :     2.864280  s :     2.864280
      pz      :     1.050533  p :     3.108534
      px      :     1.019402
      py      :     1.038599
      dz2     :     0.024960  d :     0.088264
      dxz     :     0.015261
      dyz     :     0.028583
      dx2y2   :     0.011415
      dxy     :     0.008046
 19 C s       :     2.869242  s :     2.869242
      pz      :     1.033046  p :     3.076967
      px      :     1.000263
      py      :     1.043658
      dz2     :     0.023876  d :     0.101795
      dxz     :     0.011713
      dyz     :     0.036592
      dx2y2   :     0.013804
      dxy     :     0.015811
 20 C s       :     2.923324  s :     2.923324
      pz      :     1.017174  p :     3.164102
      px      :     1.073429
      py      :     1.073499
      dz2     :     0.023891  d :     0.097382
      dxz     :     0.012698
      dyz     :     0.025272
      dx2y2   :     0.018397
      dxy     :     0.017124
 21 H s       :     0.897486  s :     0.897486
      pz      :     0.014489  p :     0.077860
      px      :     0.020473
      py      :     0.042897
 22 C s       :     2.820498  s :     2.820498
      pz      :     1.008754  p :     3.133148
      px      :     1.041494
      py      :     1.082900
      dz2     :     0.022497  d :     0.089664
      dxz     :     0.019798
      dyz     :     0.015846
      dx2y2   :     0.010608
      dxy     :     0.020915
 23 H s       :     0.899746  s :     0.899746
      pz      :     0.018824  p :     0.073159
      px      :     0.019894
      py      :     0.034441
 24 H s       :     0.901573  s :     0.901573
      pz      :     0.012964  p :     0.068229
      px      :     0.032555
      py      :     0.022709
 25 C s       :     2.841709  s :     2.841709
      pz      :     1.018572  p :     3.115768
      px      :     1.050079
      py      :     1.047117
      dz2     :     0.024849  d :     0.088880
      dxz     :     0.015972
      dyz     :     0.015400
      dx2y2   :     0.012191
      dxy     :     0.020469
 26 H s       :     0.910121  s :     0.910121
      pz      :     0.013182  p :     0.056131
      px      :     0.012220
      py      :     0.030729
 27 H s       :     0.912221  s :     0.912221
      pz      :     0.013800  p :     0.069811
      px      :     0.033654
      py      :     0.022357
 28 C s       :     2.845152  s :     2.845152
      pz      :     1.012246  p :     3.163808
      px      :     1.072218
      py      :     1.079344
      dz2     :     0.017357  d :     0.071332
      dxz     :     0.013514
      dyz     :     0.019070
      dx2y2   :     0.007800
      dxy     :     0.013592
 29 H s       :     0.902482  s :     0.902482
      pz      :     0.020197  p :     0.066941
      px      :     0.026106
      py      :     0.020638
 30 H s       :     0.916874  s :     0.916874
      pz      :     0.018196  p :     0.054280
      px      :     0.011209
      py      :     0.024875
 31 H s       :     0.909432  s :     0.909432
      pz      :     0.014373  p :     0.070938
      px      :     0.034971
      py      :     0.021595
 32 H s       :     0.903722  s :     0.903722
      pz      :     0.013260  p :     0.078841
      px      :     0.019500
      py      :     0.046081
 33 H s       :     0.891072  s :     0.891072
      pz      :     0.028389  p :     0.069281
      px      :     0.013939
      py      :     0.026952


                      *****************************
                      * MAYER POPULATION ANALYSIS *
                      *****************************

  NA   - Mulliken gross atomic population
  ZA   - Total nuclear charge
  QA   - Mulliken gross atomic charge
  VA   - Mayer's total valence
  BVA  - Mayer's bonded valence
  FA   - Mayer's free valence

  ATOM       NA         ZA         QA         VA         BVA        FA
  0 S     15.8647    16.0000     0.1353     2.4853     2.4853     0.0000
  1 C      6.1011     6.0000    -0.1011     3.8469     3.8469     0.0000
  2 C      6.0882     6.0000    -0.0882     4.0242     4.0242     0.0000
  3 C      5.9321     6.0000     0.0679     3.9430     3.9430    -0.0000
  4 C      6.1582     6.0000    -0.1582     3.8950     3.8950    -0.0000
  5 H      1.0544     1.0000    -0.0544     1.0143     1.0143    -0.0000
  6 C      5.9473     6.0000     0.0527     3.9551     3.9551    -0.0000
  7 H      0.9739     1.0000     0.0261     0.9874     0.9874    -0.0000
  8 H      0.9669     1.0000     0.0331     0.9871     0.9871    -0.0000
  9 C      6.0513     6.0000    -0.0513     4.0925     4.0925    -0.0000
 10 H      0.9941     1.0000     0.0059     0.9826     0.9826    -0.0000
 11 H      0.9626     1.0000     0.0374     0.9851     0.9851    -0.0000
 12 C      6.0149     6.0000    -0.0149     3.9872     3.9872    -0.0000
 13 H      0.9746     1.0000     0.0254     0.9875     0.9875    -0.0000
 14 H      0.9858     1.0000     0.0142     0.9991     0.9991    -0.0000
 15 H      0.9611     1.0000     0.0389     0.9895     0.9895    -0.0000
 16 S     15.9174    16.0000     0.0826     2.4213     2.4213    -0.0000
 17 C      6.0989     6.0000    -0.0989     3.8418     3.8418    -0.0000
 18 C      5.9925     6.0000     0.0075     3.9439     3.9439     0.0000
 19 C      6.0419     6.0000    -0.0419     4.0085     4.0085    -0.0000
 20 C      6.1037     6.0000    -0.1037     3.9017     3.9017     0.0000
 21 H      0.9979     1.0000     0.0021     1.0000     1.0000     0.0000
 22 C      5.9458     6.0000     0.0542     3.9672     3.9672    -0.0000
 23 H      0.9848     1.0000     0.0152     0.9991     0.9991    -0.0000
 24 H      0.9853     1.0000     0.0147     0.9865     0.9865    -0.0000
 25 C      6.0840     6.0000    -0.0840     4.0705     4.0705     0.0000
 26 H      0.9630     1.0000     0.0370     0.9780     0.9780    -0.0000
 27 H      0.9713     1.0000     0.0287     0.9802     0.9802     0.0000
 28 C      6.0695     6.0000    -0.0695     3.9872     3.9872     0.0000
 29 H      0.9574     1.0000     0.0426     0.9848     0.9848     0.0000
 30 H      0.9782     1.0000     0.0218     0.9830     0.9830    -0.0000
 31 H      0.9760     1.0000     0.0240     0.9894     0.9894    -0.0000
 32 H      0.9721     1.0000     0.0279     1.0079     1.0079    -0.0000
 33 H      0.9294     1.0000     0.0706     0.9924     0.9924    -0.0000

  Mayer bond orders larger than 0.100000
B(  0-S ,  1-C ) :   1.1480 B(  0-S ,  4-C ) :   1.1502 B(  1-C ,  2-C ) :   1.6035 
B(  1-C ,  4-C ) :   0.1009 B(  1-C , 32-H ) :   0.9602 B(  2-C ,  3-C ) :   1.2502 
B(  2-C ,  6-C ) :   1.0341 B(  3-C ,  4-C ) :   1.5536 B(  3-C ,  5-H ) :   1.0084 
B(  4-C , 20-C ) :   1.0457 B(  6-C ,  7-H ) :   0.9367 B(  6-C ,  8-H ) :   0.9236 
B(  6-C ,  9-C ) :   1.0833 B(  9-C , 10-H ) :   0.9481 B(  9-C , 11-H ) :   0.9537 
B(  9-C , 12-C ) :   1.0834 B( 12-C , 13-H ) :   0.9710 B( 12-C , 14-H ) :   0.9714 
B( 12-C , 15-H ) :   0.9752 B( 16-S , 17-C ) :   1.1337 B( 16-S , 20-C ) :   1.1070 
B( 17-C , 18-C ) :   1.6492 B( 17-C , 33-H ) :   0.9595 B( 18-C , 19-C ) :   1.1935 
B( 18-C , 21-H ) :   1.0022 B( 19-C , 20-C ) :   1.6242 B( 19-C , 22-C ) :   1.0560 
B( 22-C , 23-H ) :   0.9335 B( 22-C , 24-H ) :   0.9328 B( 22-C , 25-C ) :   1.0517 
B( 25-C , 26-H ) :   0.9511 B( 25-C , 27-H ) :   0.9517 B( 25-C , 28-C ) :   1.0796 
B( 28-C , 29-H ) :   0.9744 B( 28-C , 30-H ) :   0.9700 B( 28-C , 31-H ) :   0.9727 


-------
TIMINGS
-------

Total SCF time: 0 days 0 hours 0 min 28 sec 

Total time                  ....      28.689 sec
Sum of individual times     ....      27.767 sec  ( 96.8%)

Fock matrix formation       ....      25.936 sec  ( 90.4%)
  XC integration            ....       1.807 sec  (  7.0% of F)
    Basis function eval.    ....       0.225 sec  ( 12.4% of XC)
    Density eval.           ....       0.159 sec  (  8.8% of XC)
    XC-Functional eval.     ....       0.188 sec  ( 10.4% of XC)
    XC-Potential eval.      ....       0.186 sec  ( 10.3% of XC)
Diagonalization             ....       0.135 sec  (  0.5%)
Density matrix formation    ....       0.017 sec  (  0.1%)
Population analysis         ....       0.049 sec  (  0.2%)
Initial guess               ....       0.193 sec  (  0.7%)
Orbital Transformation      ....       0.000 sec  (  0.0%)
Orbital Orthonormalization  ....       0.000 sec  (  0.0%)
DIIS solution               ....       0.148 sec  (  0.5%)
SOSCF solution              ....       0.136 sec  (  0.5%)
Grid generation             ....       1.153 sec  (  4.0%)


-------------------------------------------------------------------------------
                          DFT DISPERSION CORRECTION                            
                                                                               
                              DFTD3 V3.1  Rev 1                                
                              USING zero damping                               
-------------------------------------------------------------------------------
The omegaB97X-D3 functional is recognized. Fit by Chai et al.
Active option DFTDOPT                   ...         3   

molecular C6(AA) [au] = 14227.336255 


            DFT-D V3
 parameters
 s6 scaling factor         :     1.0000 
 rs6 scaling factor        :     1.2810 
 s8 scaling factor         :     1.0000 
 rs8 scaling factor        :     1.0940 
 Damping factor alpha6     :    14.0000 
 Damping factor alpha8     :    16.0000 
 ad hoc parameters k1-k3   :    16.0000     1.3333    -4.0000 

 Edisp/kcal,au: -8.861074888340  -0.014121020175 
 E6   /kcal   :  -4.055707257 
 E8   /kcal   :  -4.805367631 
 % E8         :  54.230075831 

-------------------------   ----------------
Dispersion correction           -0.014121020
-------------------------   ----------------


-------------------------   --------------------
FINAL SINGLE POINT ENERGY     -1339.858024911339
-------------------------   --------------------


                            ***************************************
                            *     ORCA property calculations      *
                            ***************************************

                                    ---------------------
                                    Active property flags
                                    ---------------------
   (+) Dipole Moment


------------------------------------------------------------------------------
                       ORCA ELECTRIC PROPERTIES CALCULATION
------------------------------------------------------------------------------

Dipole Moment Calculation                       ... on
Quadrupole Moment Calculation                   ... off
Polarizability Calculation                      ... off
GBWName                                         ... config_3214.gbw
Electron density file                           ... config_3214.scfp
The origin for moment calculation is the CENTER OF MASS  = (87.105713, 42.145757 154.156686)

-------------
DIPOLE MOMENT
-------------
                                X             Y             Z
Electronic contribution:      1.12817       2.05097      33.74777
Nuclear contribution   :     -1.17536      -2.25612     -34.50966
                        -----------------------------------------
Total Dipole Moment    :     -0.04720      -0.20515      -0.76190
                        -----------------------------------------
Magnitude (a.u.)       :      0.79044
Magnitude (Debye)      :      2.00914



--------------------
Rotational spectrum 
--------------------
 
Rotational constants in cm-1:     0.017944     0.008984     0.006249 
Rotational constants in MHz :   537.933746   269.346036   187.353604 

 Dipole components along the rotational axes: 
x,y,z [a.u.] :     0.370901    -0.697647     0.022767 
x,y,z [Debye]:     0.942757    -1.773278     0.057869 

 

Timings for individual modules:

Sum of individual times         ...       29.785 sec (=   0.496 min)
GTO integral calculation        ...        0.708 sec (=   0.012 min)   2.4 %
SCF iterations                  ...       29.077 sec (=   0.485 min)  97.6 %
                             ****ORCA TERMINATED NORMALLY****
TOTAL RUN TIME: 0 days 0 hours 0 minutes 30 seconds 484 msec
