
                                 *****************
                                 * O   R   C   A *
                                 *****************

           --- An Ab Initio, DFT and Semiempirical electronic structure package ---

                  #######################################################
                  #                        -***-                        #
                  #          Department of theory and spectroscopy      #
                  #               Directorship: Frank Neese             #
                  #        Max Planck Institute fuer Kohlenforschung    #
                  #                Kaiser Wilhelm Platz 1               #
                  #                 D-45470 Muelheim/Ruhr               #
                  #                      Germany                        #
                  #                                                     #
                  #                  All rights reserved                #
                  #                        -***-                        #
                  #######################################################


                         Program Version 4.2.1 -  RELEASE  -


 With contributions from (in alphabetic order):
   Daniel Aravena         : Magnetic Suceptibility
   Michael Atanasov       : Ab Initio Ligand Field Theory (pilot matlab implementation)
   Alexander A. Auer      : GIAO ZORA, VPT2
   Ute Becker             : Parallelization
   Giovanni Bistoni       : ED, misc. LED, open-shell LED, HFLD
   Martin Brehm           : Molecular dynamics
   Dmytro Bykov           : SCF Hessian
   Vijay G. Chilkuri      : MRCI spin determinant printing, contributions to CSF-ICE
   Dipayan Datta          : RHF DLPNO-CCSD density
   Achintya Kumar Dutta   : EOM-CC, STEOM-CC
   Dmitry Ganyushin       : Spin-Orbit,Spin-Spin,Magnetic field MRCI
   Miquel Garcia          : C-PCM Hessian, Gaussian charge scheme
   Yang Guo               : DLPNO-NEVPT2, CIM, IAO-localization
   Andreas Hansen         : Spin unrestricted coupled pair/coupled cluster methods
   Benjamin Helmich-Paris : CASSCF linear response (MC-RPA)
   Lee Huntington         : MR-EOM, pCC
   Robert Izsak           : Overlap fitted RIJCOSX, COSX-SCS-MP3, EOM
   Christian Kollmar      : KDIIS, OOCD, Brueckner-CCSD(T), CCSD density
   Simone Kossmann        : Meta GGA functionals, TD-DFT gradient, OOMP2, MP2 Hessian
   Martin Krupicka        : AUTO-CI
   Lucas Lang             : DCDCAS
   Dagmar Lenk            : GEPOL surface, SMD
   Dimitrios Liakos       : Extrapolation schemes; Compound Job, initial MDCI parallelization
   Dimitrios Manganas     : Further ROCIS development; embedding schemes
   Dimitrios Pantazis     : SARC Basis sets
   Taras Petrenko         : DFT Hessian,TD-DFT gradient, ASA, ECA, R-Raman, ABS, FL, XAS/XES, NRVS
   Peter Pinski           : DLPNO-MP2, DLPNO-MP2 Gradient
   Christoph Reimann      : Effective Core Potentials
   Marius Retegan         : Local ZFS, SOC
   Christoph Riplinger    : Optimizer, TS searches, QM/MM, DLPNO-CCSD(T), (RO)-DLPNO pert. Triples
   Tobias Risthaus        : Range-separated hybrids, TD-DFT gradient, RPA, STAB
   Michael Roemelt        : Original ROCIS implementation
   Masaaki Saitow         : Open-shell DLPNO-CCSD energy and density
   Barbara Sandhoefer     : DKH picture change effects
   Avijit Sen             : IP-ROCIS
   Kantharuban Sivalingam : CASSCF convergence, NEVPT2, FIC-MRCI
   Bernardo de Souza      : ESD, SOC TD-DFT
   Georgi Stoychev        : AutoAux, RI-MP2 NMR
   Willem Van den Heuvel  : Paramagnetic NMR
   Boris Wezisla          : Elementary symmetry handling
   Frank Wennmohs         : Technical directorship


 We gratefully acknowledge several colleagues who have allowed us to
 interface, adapt or use parts of their codes:
   Stefan Grimme, W. Hujo, H. Kruse,             : VdW corrections, initial TS optimization,
                  C. Bannwarth                     DFT functionals, gCP, sTDA/sTD-DF
   Ed Valeev, F. Pavosevic, A. Kumar             : LibInt (2-el integral package), F12 methods
   Garnet Chan, S. Sharma, J. Yang, R. Olivares  : DMRG
   Ulf Ekstrom                                   : XCFun DFT Library
   Mihaly Kallay                                 : mrcc  (arbitrary order and MRCC methods)
   Andreas Klamt, Michael Diedenhofen            : otool_cosmo (COSMO solvation model)
   Jiri Pittner, Ondrej Demel                    : Mk-CCSD
   Frank Weinhold                                : gennbo (NPA and NBO analysis)
   Christopher J. Cramer and Donald G. Truhlar   : smd solvation model
   Lars Goerigk                                  : TD-DFT with DH, B97 family of functionals
   V. Asgeirsson, H. Jonsson                     : NEB implementation
   FAccTs GmbH                                   : IRC, NEB, NEB-TS, Multilevel, MM, QM/MM, CI optimization
   S Lehtola, MJT Oliveira, MAL Marques          : LibXC Library


 Your calculation uses the libint2 library for the computation of 2-el integrals
 For citations please refer to: http://libint.valeyev.net

 Your ORCA version has been built with support for libXC version: 4.2.3
 For citations please refer to: https://tddft.org/programs/libxc/

 This ORCA versions uses:
   CBLAS   interface :  Fast vector & matrix operations
   LAPACKE interface :  Fast linear algebra routines
   SCALAPACK package :  Parallel linear algebra routines


Your calculation utilizes the atom-pairwise dispersion correction
with the zero-damping scheme (D30)
Cite in your paper:
S.Grimme, J.Antony, S.Ehrlich and H.Krieg, J.Chem.Phys., 132, (2010), 154104 
   

XCFun DFT library Copyright 2009-2010 Ulf Ekstrom and contributors.
See http://admol.org/xcfun for more information. This is free soft-
ware; see the source code for copying conditions. There is ABSOLUTELY
NO WARRANTY; not even for MERCHANTABILITY or FITNESS FOR A PARTICULAR
PURPOSE. For details see the documentation. Scientific users of this 
library should cite U. Ekstrom, L. Visscher, R. Bast, A. J. Thorvald-
sen and K. Ruud; J.Chem.Theor.Comp. 2010, DOI: 10.1021/ct100117s
XCFun Version 0.99 
----- Orbital basis set information -----
Your calculation utilizes the basis: def2-SVP
   F. Weigend and R. Ahlrichs, Phys. Chem. Chem. Phys. 7, 3297 (2005).

================================================================================
                                        WARNINGS
                       Please study these warnings very carefully!
================================================================================


INFO   : the flag for use of LIBINT has been found!

================================================================================
                                       INPUT FILE
================================================================================
NAME = config_6224.inp
|  1> ! wB97X-D3 SP def2-SVP
|  2> %pal
|  3> nprocs 16
|  4> end
|  5> 
|  6> * xyz 0 1
|  7> S 	 -44.7867 	 13.7882 	 80.6812 	 
|  8> C 	 -44.0682 	 12.6741 	 79.5449 	 
|  9> C 	 -42.7303 	 12.7655 	 79.488 	 
| 10> C 	 -42.2721 	 13.9092 	 80.2652 	 
| 11> C 	 -43.2904 	 14.6256 	 80.8885 	 
| 12> H 	 -41.2863 	 14.3911 	 80.3583 	 
| 13> C 	 -41.7924 	 11.8261 	 78.6279 	 
| 14> H 	 -41.2077 	 12.4197 	 77.9124 	 
| 15> H 	 -42.4633 	 11.2382 	 78.0887 	 
| 16> C 	 -40.7825 	 11.0239 	 79.4748 	 
| 17> H 	 -40.1762 	 10.3631 	 78.7758 	 
| 18> H 	 -40.0226 	 11.7141 	 79.8253 	 
| 19> C 	 -41.3231 	 10.1816 	 80.6098 	 
| 20> H 	 -41.2296 	 10.8287 	 81.5336 	 
| 21> H 	 -42.3734 	 9.92702 	 80.5191 	 
| 22> H 	 -40.766 	 9.32665 	 80.9948 	 
| 23> S 	 -41.6529 	 16.7724 	 81.453 	 
| 24> C 	 -41.9454 	 17.7892 	 82.819 	 
| 25> C 	 -43.0918 	 17.3783 	 83.4705 	 
| 26> C 	 -43.7049 	 16.1925 	 82.9304 	 
| 27> C 	 -43.0248 	 15.7182 	 81.8088 	 
| 28> H 	 -43.4239 	 17.8691 	 84.3508 	 
| 29> C 	 -45.0224 	 15.6798 	 83.5579 	 
| 30> H 	 -45.8888 	 15.9352 	 82.8789 	 
| 31> H 	 -45.3043 	 16.4284 	 84.3403 	 
| 32> C 	 -44.9719 	 14.3466 	 84.1243 	 
| 33> H 	 -45.1233 	 13.5654 	 83.2946 	 
| 34> H 	 -45.959 	 14.2774 	 84.5954 	 
| 35> C 	 -43.8715 	 13.9887 	 85.1337 	 
| 36> H 	 -43.8766 	 12.9563 	 85.4959 	 
| 37> H 	 -43.91 	 14.6693 	 85.9982 	 
| 38> H 	 -42.9155 	 14.067 	 84.6871 	 
| 39> H 	 -44.593 	 11.9767 	 78.8653 	 
| 40> H 	 -41.2311 	 18.58 	 83.1176 	 
| 41> *
| 42> 
| 43>                          ****END OF INPUT****
================================================================================

                       ****************************
                       * Single Point Calculation *
                       ****************************

---------------------------------
CARTESIAN COORDINATES (ANGSTROEM)
---------------------------------
  S    -44.786700   13.788200   80.681200
  C    -44.068200   12.674100   79.544900
  C    -42.730300   12.765500   79.488000
  C    -42.272100   13.909200   80.265200
  C    -43.290400   14.625600   80.888500
  H    -41.286300   14.391100   80.358300
  C    -41.792400   11.826100   78.627900
  H    -41.207700   12.419700   77.912400
  H    -42.463300   11.238200   78.088700
  C    -40.782500   11.023900   79.474800
  H    -40.176200   10.363100   78.775800
  H    -40.022600   11.714100   79.825300
  C    -41.323100   10.181600   80.609800
  H    -41.229600   10.828700   81.533600
  H    -42.373400    9.927020   80.519100
  H    -40.766000    9.326650   80.994800
  S    -41.652900   16.772400   81.453000
  C    -41.945400   17.789200   82.819000
  C    -43.091800   17.378300   83.470500
  C    -43.704900   16.192500   82.930400
  C    -43.024800   15.718200   81.808800
  H    -43.423900   17.869100   84.350800
  C    -45.022400   15.679800   83.557900
  H    -45.888800   15.935200   82.878900
  H    -45.304300   16.428400   84.340300
  C    -44.971900   14.346600   84.124300
  H    -45.123300   13.565400   83.294600
  H    -45.959000   14.277400   84.595400
  C    -43.871500   13.988700   85.133700
  H    -43.876600   12.956300   85.495900
  H    -43.910000   14.669300   85.998200
  H    -42.915500   14.067000   84.687100
  H    -44.593000   11.976700   78.865300
  H    -41.231100   18.580000   83.117600

----------------------------
CARTESIAN COORDINATES (A.U.)
----------------------------
  NO LB      ZA    FRAG     MASS         X           Y           Z
   0 S    16.0000    0    32.060  -84.634597   26.055922  152.465372
   1 C     6.0000    0    12.011  -83.276829   23.950578  150.318076
   2 C     6.0000    0    12.011  -80.748565   24.123299  150.210551
   3 C     6.0000    0    12.011  -79.882692   26.284579  151.679246
   4 C     6.0000    0    12.011  -81.807000   27.638379  152.857112
   5 H     1.0000    0     1.008  -78.019800   27.195238  151.855180
   6 C     6.0000    0    12.011  -78.976190   22.348090  148.585197
   7 H     1.0000    0     1.008  -77.871268   23.469832  147.233098
   8 H     1.0000    0     1.008  -80.244008   21.237120  147.566257
   9 C     6.0000    0    12.011  -77.067756   20.832152  150.185607
  10 H     1.0000    0     1.008  -75.922015   19.583421  148.864688
  11 H     1.0000    0     1.008  -75.631753   22.136441  150.847956
  12 C     6.0000    0    12.011  -78.089342   19.240436  152.330446
  13 H     1.0000    0     1.008  -77.912653   20.463277  154.076175
  14 H     1.0000    0     1.008  -80.074121   18.759349  152.159048
  15 H     1.0000    0     1.008  -77.036576   17.624814  153.057990
  16 S    16.0000    0    32.060  -78.712574   31.695243  153.923863
  17 C     6.0000    0    12.011  -79.265319   33.616716  156.505229
  18 C     6.0000    0    12.011  -81.431701   32.840228  157.736385
  19 C     6.0000    0    12.011  -82.590292   30.599390  156.715744
  20 C     6.0000    0    12.011  -81.305089   29.703093  154.596227
  21 H     1.0000    0     1.008  -82.059279   33.767705  159.399911
  22 C     6.0000    0    12.011  -85.080006   29.630528  157.901547
  23 H     1.0000    0     1.008  -86.717265   30.113164  156.618423
  24 H     1.0000    0     1.008  -85.612720   31.045177  159.380069
  25 C     6.0000    0    12.011  -84.984575   27.111145  158.971888
  26 H     1.0000    0     1.008  -85.270679   25.634891  157.403982
  27 H     1.0000    0     1.008  -86.849923   26.980376  159.862138
  28 C     6.0000    0    12.011  -82.905120   26.434812  160.879378
  29 H     1.0000    0     1.008  -82.914758   24.483859  161.563837
  30 H     1.0000    0     1.008  -82.977875   27.720960  162.513046
  31 H     1.0000    0     1.008  -81.098542   26.582778  160.035426
  32 H     1.0000    0     1.008  -84.268557   22.632683  149.033818
  33 H     1.0000    0     1.008  -77.915487   35.111112  157.069501

--------------------------------
INTERNAL COORDINATES (ANGSTROEM)
--------------------------------
 S      0   0   0     0.000000000000     0.00000000     0.00000000
 C      1   0   0     1.746035151422     0.00000000     0.00000000
 C      2   1   0     1.342225010943   113.22331953     0.00000000
 C      3   2   1     1.456721239634   110.14361252   352.08044866
 C      4   3   2     1.392360133012   114.37824791     0.62607240
 H      4   3   2     1.101225163171   132.08634113   189.24097395
 C      3   2   1     1.581739795289   125.00537286   175.72340313
 H      7   3   2     1.098260124014   110.42244596   120.96296383
 H      7   3   2     1.042338649384   103.56858338     5.45043901
 C      7   3   2     1.542939551635   113.47938274   240.91573749
 H     10   7   3     1.137038842784   108.28453016   178.55495678
 H     10   7   3     1.084746191512   107.76194509   287.29967264
 C     10   7   3     1.513255645950   117.85616757    54.12074448
 H     13  10   7     1.131762828511   105.33445486   264.53078680
 H     13  10   7     1.084512589323   114.45046915    21.04728512
 H     13  10   7     1.090653433727   121.23896782   156.51584589
 S      6   4   3     2.646384956880   107.74205645   163.96964218
 C     17   6   4     1.727829415770   151.64486921    77.83088219
 C     18  17   6     1.381131427490   109.77747972   304.84718224
 C     19  18  17     1.440042103551   114.92652531     3.64069030
 C     20  19  18     1.394805742747   111.96323519   357.96914950
 H     19  18  17     1.061180069545   120.89563296   178.58559413
 C     20  19  18     1.546746194435   118.91036720   182.18343021
 H     23  20  19     1.130008460145   109.53568999   104.31826995
 H     23  20  19     1.118936696154   106.05178319     3.61265129
 C     23  20  19     1.449407275406   115.70591907   240.67186785
 H     26  23  20     1.149607537380   109.78122196   276.92093961
 H     26  23  20     1.095942635360   101.22592515   173.47635460
 C     26  23  20     1.535532783759   119.75181004    51.99004088
 H     29  26  23     1.094104478558   115.73508643   181.81102936
 H     29  26  23     1.100935447699   110.30620281    57.68922643
 H     29  26  23     1.058072988976   110.65733728   297.61838274
 H      2   1   3     1.106181702977   127.36374249   183.44159099
 H     18  17   6     1.106684729270   121.63849950   120.22813568

---------------------------
INTERNAL COORDINATES (A.U.)
---------------------------
 S      0   0   0     0.000000000000     0.00000000     0.00000000
 C      1   0   0     3.299528256387     0.00000000     0.00000000
 C      2   1   0     2.536437680781   113.22331953     0.00000000
 C      3   2   1     2.752804196374   110.14361252   352.08044866
 C      4   3   2     2.631179331182   114.37824791     0.62607240
 H      4   3   2     2.081013970175   132.08634113   189.24097395
 C      3   2   1     2.989055028220   125.00537286   175.72340313
 H      7   3   2     2.075410858193   110.42244596   120.96296383
 H      7   3   2     1.969734586137   103.56858338     5.45043901
 C      7   3   2     2.915733193786   113.47938274   240.91573749
 H     10   7   3     2.148692016493   108.28453016   178.55495678
 H     10   7   3     2.049873226772   107.76194509   287.29967264
 C     10   7   3     2.859638741456   117.85616757    54.12074448
 H     13  10   7     2.138721794439   105.33445486   264.53078680
 H     13  10   7     2.049431782610   114.45046915    21.04728512
 H     13  10   7     2.061036296764   121.23896782   156.51584589
 S      6   4   3     5.000942813432   107.74205645   163.96964218
 C     17   6   4     3.265124401938   151.64486921    77.83088219
 C     18  17   6     2.609960152907   109.77747972   304.84718224
 C     19  18  17     2.721285197028   114.92652531     3.64069030
 C     20  19  18     2.635800863812   111.96323519   357.96914950
 H     19  18  17     2.005339710216   120.89563296   178.58559413
 C     20  19  18     2.922926706168   118.91036720   182.18343021
 H     23  20  19     2.135406518689   109.53568999   104.31826995
 H     23  20  19     2.114483916926   106.05178319     3.61265129
 C     23  20  19     2.738982807030   115.70591907   240.67186785
 H     26  23  20     2.172443407139   109.78122196   276.92093961
 H     26  23  20     2.071031439318   101.22592515   173.47635460
 C     26  23  20     2.901736430963   119.75181004    51.99004088
 H     29  26  23     2.067557826371   115.73508643   181.81102936
 H     29  26  23     2.080466487277   110.30620281    57.68922643
 H     29  26  23     1.999468178864   110.65733728   297.61838274
 H      2   1   3     2.090380472980   127.36374249   183.44159099
 H     18  17   6     2.091331054914   121.63849950   120.22813568

---------------------
BASIS SET INFORMATION
---------------------
There are 3 groups of distinct atoms

 Group   1 Type S   : 10s7p1d contracted to 4s3p1d pattern {5311/511/1}
 Group   2 Type C   : 7s4p1d contracted to 3s2p1d pattern {511/31/1}
 Group   3 Type H   : 4s1p contracted to 2s1p pattern {31/1}

Atom   0S    basis set group =>   1
Atom   1C    basis set group =>   2
Atom   2C    basis set group =>   2
Atom   3C    basis set group =>   2
Atom   4C    basis set group =>   2
Atom   5H    basis set group =>   3
Atom   6C    basis set group =>   2
Atom   7H    basis set group =>   3
Atom   8H    basis set group =>   3
Atom   9C    basis set group =>   2
Atom  10H    basis set group =>   3
Atom  11H    basis set group =>   3
Atom  12C    basis set group =>   2
Atom  13H    basis set group =>   3
Atom  14H    basis set group =>   3
Atom  15H    basis set group =>   3
Atom  16S    basis set group =>   1
Atom  17C    basis set group =>   2
Atom  18C    basis set group =>   2
Atom  19C    basis set group =>   2
Atom  20C    basis set group =>   2
Atom  21H    basis set group =>   3
Atom  22C    basis set group =>   2
Atom  23H    basis set group =>   3
Atom  24H    basis set group =>   3
Atom  25C    basis set group =>   2
Atom  26H    basis set group =>   3
Atom  27H    basis set group =>   3
Atom  28C    basis set group =>   2
Atom  29H    basis set group =>   3
Atom  30H    basis set group =>   3
Atom  31H    basis set group =>   3
Atom  32H    basis set group =>   3
Atom  33H    basis set group =>   3


           ************************************************************
           *        Program running with 16 parallel MPI-processes    *
           *              working on a common directory               *
           ************************************************************
------------------------------------------------------------------------------
                           ORCA GTO INTEGRAL CALCULATION
------------------------------------------------------------------------------

                         BASIS SET STATISTICS AND STARTUP INFO

 # of primitive gaussian shells          ...  294
 # of primitive gaussian functions       ...  534
 # of contracted shells                  ...  154
 # of contracted basis functions         ...  322
 Highest angular momentum                ...    2
 Maximum contraction depth               ...    5
 Integral package used                   ... LIBINT
 Integral threshhold            Thresh   ...  1.000e-10
 Primitive cut-off              TCut     ...  1.000e-11


------------------------------ INTEGRAL EVALUATION ----------------------------


 * One electron integrals 
 Pre-screening matrix                    ... done
 Shell pair data                         ... done (   0.003 sec)



           ************************************************************
           *        Program running with 16 parallel MPI-processes    *
           *              working on a common directory               *
           ************************************************************
-------------------------------------------------------------------------------
                                 ORCA SCF
-------------------------------------------------------------------------------

------------
SCF SETTINGS
------------
Hamiltonian:
 Density Functional     Method          .... DFT(GTOs)
 Exchange Functional    Exchange        .... WB97X-D3
 Correlation Functional Correlation     .... WB97X-D3
 Gradients option       PostSCFGGA      .... off
 Hybrid DFT is turned on
   Fraction HF Exchange ScalHFX         ....  0.195728
   Scaling of DF-GGA-X  ScalDFX         ....  0.000000
   Scaling of DF-GGA-C  ScalDFC         ....  1.000000
   Scaling of DF-LDA-C  ScalLDAC        ....  1.000000
   Perturbative correction              ....  0.000000
   Density functional embedding theory  .... OFF
 Long-range corrected/Screened/Range-Separated Hybrid DFT is turned on
   Amount of maximum screened exact exchange              ....  0.804272
   Range separation parameter mu (erf(mu*r12)/r12)        ....  0.250000


General Settings:
 Integral files         IntName         .... config_6224
 Hartree-Fock type      HFTyp           .... RHF
 Total Charge           Charge          ....    0
 Multiplicity           Mult            ....    1
 Number of Electrons    NEL             ....  134
 Basis Dimension        Dim             ....  322
 Nuclear Repulsion      ENuc            ....   1305.3230785762 Eh

Convergence Acceleration:
 DIIS                   CNVDIIS         .... on
   Start iteration      DIISMaxIt       ....    12
   Startup error        DIISStart       ....  0.200000
   # of expansion vecs  DIISMaxEq       ....     5
   Bias factor          DIISBfac        ....   1.050
   Max. coefficient     DIISMaxC        ....  10.000
 Newton-Raphson         CNVNR           .... off
 SOSCF                  CNVSOSCF        .... on
   Start iteration      SOSCFMaxIt      ....   150
   Startup grad/error   SOSCFStart      ....  0.003300
 Level Shifting         CNVShift        .... on
   Level shift para.    LevelShift      ....    0.2500
   Turn off err/grad.   ShiftErr        ....    0.0010
 Zerner damping         CNVZerner       .... off
 Static damping         CNVDamp         .... on
   Fraction old density DampFac         ....    0.7000
   Max. Damping (<1)    DampMax         ....    0.9800
   Min. Damping (>=0)   DampMin         ....    0.0000
   Turn off err/grad.   DampErr         ....    0.1000
 Fernandez-Rico         CNVRico         .... off

SCF Procedure:
 Maximum # iterations   MaxIter         ....   125
 SCF integral mode      SCFMode         .... Direct
   Integral package                     .... LIBINT
 Reset frequency        DirectResetFreq ....    20
 Integral Threshold     Thresh          ....  1.000e-10 Eh
 Primitive CutOff       TCut            ....  1.000e-11 Eh

Convergence Tolerance:
 Convergence Check Mode ConvCheckMode   .... Total+1el-Energy
 Convergence forced     ConvForced      .... 0
 Energy Change          TolE            ....  1.000e-06 Eh
 1-El. energy change                    ....  1.000e-03 Eh
 Orbital Gradient       TolG            ....  5.000e-05
 Orbital Rotation angle TolX            ....  5.000e-05
 DIIS Error             TolErr          ....  1.000e-06


Diagonalization of the overlap matrix:
Smallest eigenvalue                        ... 5.596e-04
Time for diagonalization                   ...    0.016 sec
Threshold for overlap eigenvalues          ... 1.000e-08
Number of eigenvalues below threshold      ... 0
Time for construction of square roots      ...    0.024 sec
Total time needed                          ...    0.041 sec

-------------------
DFT GRID GENERATION
-------------------

General Integration Accuracy     IntAcc      ...  4.340
Radial Grid Type                 RadialGrid  ... Gauss-Chebyshev
Angular Grid (max. acc.)         AngularGrid ... Lebedev-110
Angular grid pruning method      GridPruning ... 3 (G Style)
Weight generation scheme         WeightScheme... Becke
Basis function cutoff            BFCut       ...    1.0000e-10
Integration weight cutoff        WCut        ...    1.0000e-14
Grids for H and He will be reduced by one unit

# of grid points (after initial pruning)     ...  41088 (   0.0 sec)
# of grid points (after weights+screening)   ...  36881 (   0.0 sec)
nearest neighbour list constructed           ...    0.0 sec
Grid point re-assignment to atoms done       ...    0.0 sec
Grid point division into batches done        ...    0.0 sec
Reduced shell lists constructed in    0.1 sec

Total number of grid points                  ...    36881
Total number of batches                      ...      594
Average number of points per batch           ...       62
Average number of grid points per atom       ...     1085
Average number of shells per batch           ...    87.31 (56.69%)
Average number of basis functions per batch  ...   172.44 (53.55%)
Average number of large shells per batch     ...    58.23 (66.70%)
Average number of large basis fcns per batch ...   116.54 (67.58%)
Maximum spatial batch extension              ...  12.98, 11.97, 12.99 au
Average spatial batch extension              ...   0.17,  0.16,  0.16 au

Time for grid setup =    0.208 sec

------------------------------
INITIAL GUESS: MODEL POTENTIAL
------------------------------
Loading Hartree-Fock densities                     ... done
Calculating cut-offs                               ... done
Setting up the integral package                    ... done
Initializing the effective Hamiltonian             ... done
Starting the Coulomb interaction                   ... done (   0.0 sec)
Reading the grid                                   ... done
Mapping shells                                     ... done
Starting the XC term evaluation                    ... done (   0.0 sec)
  promolecular density results
     # of electrons  =    133.988596508
     EX              =   -126.706696108
     EC              =     -4.619971166
     EX+EC           =   -131.326667274
Transforming the Hamiltonian                       ... done (   0.0 sec)
Diagonalizing the Hamiltonian                      ... done (   0.0 sec)
Back transforming the eigenvectors                 ... done (   0.0 sec)
Now organizing SCF variables                       ... done
                      ------------------
                      INITIAL GUESS DONE (   0.4 sec)
                      ------------------
--------------
SCF ITERATIONS
--------------
ITER       Energy         Delta-E        Max-DP      RMS-DP      [F,P]     Damp
               ***  Starting incremental Fock matrix formation  ***
  0  -1339.4365884389   0.000000000000 0.06432151  0.00150114  0.1604597 0.7000
  1  -1339.6143339453  -0.177745506447 0.04311356  0.00110973  0.0966105 0.7000
                               ***Turning on DIIS***
  2  -1339.7023896171  -0.088055671733 0.07491697  0.00214766  0.0499885 0.0000
  3  -1339.8367777744  -0.134388157300 0.04086849  0.00086662  0.0379154 0.0000
  4  -1339.8638671760  -0.027089401665 0.00608654  0.00019153  0.0065817 0.0000
                      *** Initiating the SOSCF procedure ***
                           *** Shutting down DIIS ***
                      *** Re-Reading the Fockian *** 
                      *** Removing any level shift *** 
ITER      Energy       Delta-E        Grad      Rot      Max-DP    RMS-DP
  5  -1339.86475490  -0.0008877277  0.002145  0.002145  0.003449  0.000098
               *** Restarting incremental Fock matrix formation ***
  6  -1339.86493174  -0.0001768342  0.001667  0.004727  0.002191  0.000064
  7  -1339.86499791  -0.0000661720  0.000736  0.005197  0.002370  0.000068
  8  -1339.86501746  -0.0000195457  0.000373  0.000742  0.000663  0.000019
  9  -1339.86502146  -0.0000040052  0.000110  0.000385  0.000262  0.000008
                 **** Energy Check signals convergence ****
              ***Rediagonalizing the Fockian in SOSCF/NRSCF***

               *****************************************************
               *                     SUCCESS                       *
               *           SCF CONVERGED AFTER  10 CYCLES          *
               *****************************************************

Setting up the final grid:

General Integration Accuracy     IntAcc      ...  4.670
Radial Grid Type                 RadialGrid  ... Gauss-Chebyshev
Angular Grid (max. acc.)         AngularGrid ... Lebedev-302
Angular grid pruning method      GridPruning ... 3 (G Style)
Weight generation scheme         WeightScheme... Becke
Basis function cutoff            BFCut       ...    1.0000e-10
Integration weight cutoff        WCut        ...    1.0000e-14
Grids for H and He will be reduced by one unit

# of grid points (after initial pruning)     ... 161752 (   0.0 sec)
# of grid points (after weights+screening)   ... 142512 (   0.2 sec)
nearest neighbour list constructed           ...    0.0 sec
Grid point re-assignment to atoms done       ...    0.0 sec
Grid point division into batches done        ...    0.5 sec
Reduced shell lists constructed in    0.6 sec

Total number of grid points                  ...   142512
Total number of batches                      ...     2241
Average number of points per batch           ...       63
Average number of grid points per atom       ...     4192
Average number of shells per batch           ...    82.17 (53.36%)
Average number of basis functions per batch  ...   160.58 (49.87%)
Average number of large shells per batch     ...    53.53 (65.14%)
Average number of large basis fcns per batch ...   106.40 (66.26%)
Maximum spatial batch extension              ...  13.16, 10.48, 10.56 au
Average spatial batch extension              ...   0.11,  0.11,  0.10 au

Final grid set up in    1.0 sec
Final integration                            ... done (   0.4 sec)
Change in XC energy                          ...     0.007037099
Integrated number of electrons               ...   134.000136968
Previous integrated no of electrons          ...   133.996834675

----------------
TOTAL SCF ENERGY
----------------

Total Energy       :        -1339.85798472 Eh          -36459.38932 eV

Components:
Nuclear Repulsion  :         1305.32307858 Eh           35519.64675 eV
Electronic Energy  :        -2645.18106329 Eh          -71979.03608 eV
One Electron Energy:        -4427.33864908 Eh         -120474.00942 eV
Two Electron Energy:         1782.15758579 Eh           48494.97335 eV

Virial components:
Potential Energy   :        -2671.21352472 Eh          -72687.41536 eV
Kinetic Energy     :         1331.35554001 Eh           36228.02604 eV
Virial Ratio       :            2.00638631


DFT components:
N(Alpha)           :       67.000068484094 electrons
N(Beta)            :       67.000068484094 electrons
N(Total)           :      134.000136968188 electrons
E(XC)              :      -94.230674386093 Eh       
DFET-embed. en.    :        0.000000000000 Eh       

---------------
SCF CONVERGENCE
---------------

  Last Energy change         ...   -3.5440e-07  Tolerance :   1.0000e-06
  Last MAX-Density change    ...    1.5144e-04  Tolerance :   1.0000e-05
  Last RMS-Density change    ...    3.5153e-06  Tolerance :   1.0000e-06
  Last Orbital Gradient      ...    8.2304e-05  Tolerance :   5.0000e-05
  Last Orbital Rotation      ...    1.8712e-04  Tolerance :   5.0000e-05

             **** THE GBW FILE WAS UPDATED (config_6224.gbw) ****
             **** DENSITY FILE WAS UPDATED (config_6224.scfp) ****
             **** ENERGY FILE WAS UPDATED (config_6224.en.tmp) ****
             **** THE GBW FILE WAS UPDATED (config_6224.gbw) ****
             **** DENSITY FILE WAS UPDATED (config_6224.scfp) ****
----------------
ORBITAL ENERGIES
----------------

  NO   OCC          E(Eh)            E(eV) 
   0   2.0000     -88.968619     -2420.9592 
   1   2.0000     -88.965184     -2420.8657 
   2   2.0000     -10.330049      -281.0949 
   3   2.0000     -10.328940      -281.0647 
   4   2.0000     -10.318500      -280.7806 
   5   2.0000     -10.313260      -280.6381 
   6   2.0000     -10.304590      -280.4022 
   7   2.0000     -10.303241      -280.3655 
   8   2.0000     -10.297813      -280.2177 
   9   2.0000     -10.296063      -280.1701 
  10   2.0000     -10.295983      -280.1679 
  11   2.0000     -10.291612      -280.0490 
  12   2.0000     -10.291580      -280.0481 
  13   2.0000     -10.282059      -279.7890 
  14   2.0000     -10.276107      -279.6271 
  15   2.0000     -10.272994      -279.5424 
  16   2.0000      -8.083144      -219.9535 
  17   2.0000      -8.079965      -219.8670 
  18   2.0000      -6.041823      -164.4064 
  19   2.0000      -6.038503      -164.3160 
  20   2.0000      -6.037703      -164.2942 
  21   2.0000      -6.034423      -164.2050 
  22   2.0000      -6.033699      -164.1853 
  23   2.0000      -6.030760      -164.1053 
  24   2.0000      -1.008957       -27.4551 
  25   2.0000      -0.985816       -26.8254 
  26   2.0000      -0.913689       -24.8627 
  27   2.0000      -0.908183       -24.7129 
  28   2.0000      -0.872618       -23.7451 
  29   2.0000      -0.847478       -23.0611 
  30   2.0000      -0.839687       -22.8491 
  31   2.0000      -0.809685       -22.0326 
  32   2.0000      -0.789293       -21.4778 
  33   2.0000      -0.781613       -21.2688 
  34   2.0000      -0.710654       -19.3379 
  35   2.0000      -0.694048       -18.8860 
  36   2.0000      -0.684509       -18.6264 
  37   2.0000      -0.669526       -18.2187 
  38   2.0000      -0.631508       -17.1842 
  39   2.0000      -0.609903       -16.5963 
  40   2.0000      -0.591998       -16.1091 
  41   2.0000      -0.565624       -15.3914 
  42   2.0000      -0.556099       -15.1322 
  43   2.0000      -0.552820       -15.0430 
  44   2.0000      -0.547669       -14.9028 
  45   2.0000      -0.534261       -14.5380 
  46   2.0000      -0.515793       -14.0354 
  47   2.0000      -0.509762       -13.8713 
  48   2.0000      -0.503656       -13.7052 
  49   2.0000      -0.493948       -13.4410 
  50   2.0000      -0.486512       -13.2387 
  51   2.0000      -0.478006       -13.0072 
  52   2.0000      -0.474002       -12.8982 
  53   2.0000      -0.470870       -12.8130 
  54   2.0000      -0.456295       -12.4164 
  55   2.0000      -0.452050       -12.3009 
  56   2.0000      -0.446686       -12.1549 
  57   2.0000      -0.444572       -12.0974 
  58   2.0000      -0.433058       -11.7841 
  59   2.0000      -0.422373       -11.4934 
  60   2.0000      -0.409716       -11.1489 
  61   2.0000      -0.399183       -10.8623 
  62   2.0000      -0.395478       -10.7615 
  63   2.0000      -0.362576        -9.8662 
  64   2.0000      -0.331559        -9.0222 
  65   2.0000      -0.329500        -8.9662 
  66   2.0000      -0.285516        -7.7693 
  67   0.0000       0.023097         0.6285 
  68   0.0000       0.085420         2.3244 
  69   0.0000       0.108433         2.9506 
  70   0.0000       0.122353         3.3294 
  71   0.0000       0.126090         3.4311 
  72   0.0000       0.145333         3.9547 
  73   0.0000       0.149716         4.0740 
  74   0.0000       0.158743         4.3196 
  75   0.0000       0.159850         4.3497 
  76   0.0000       0.171304         4.6614 
  77   0.0000       0.180174         4.9028 
  78   0.0000       0.186865         5.0849 
  79   0.0000       0.192207         5.2302 
  80   0.0000       0.197940         5.3862 
  81   0.0000       0.205070         5.5802 
  82   0.0000       0.210997         5.7415 
  83   0.0000       0.214074         5.8253 
  84   0.0000       0.222165         6.0454 
  85   0.0000       0.227233         6.1833 
  86   0.0000       0.234414         6.3787 
  87   0.0000       0.236119         6.4251 
  88   0.0000       0.242577         6.6009 
  89   0.0000       0.244768         6.6605 
  90   0.0000       0.261947         7.1279 
  91   0.0000       0.266972         7.2647 
  92   0.0000       0.276656         7.5282 
  93   0.0000       0.296232         8.0609 
  94   0.0000       0.306501         8.3403 
  95   0.0000       0.323163         8.7937 
  96   0.0000       0.329286         8.9603 
  97   0.0000       0.346002         9.4152 
  98   0.0000       0.356065         9.6890 
  99   0.0000       0.366486         9.9726 
 100   0.0000       0.379572        10.3287 
 101   0.0000       0.391251        10.6465 
 102   0.0000       0.409961        11.1556 
 103   0.0000       0.430068        11.7028 
 104   0.0000       0.440685        11.9916 
 105   0.0000       0.448362        12.2005 
 106   0.0000       0.462601        12.5880 
 107   0.0000       0.476234        12.9590 
 108   0.0000       0.486248        13.2315 
 109   0.0000       0.488163        13.2836 
 110   0.0000       0.499268        13.5858 
 111   0.0000       0.506793        13.7905 
 112   0.0000       0.515790        14.0354 
 113   0.0000       0.522189        14.2095 
 114   0.0000       0.526848        14.3363 
 115   0.0000       0.534416        14.5422 
 116   0.0000       0.538906        14.6644 
 117   0.0000       0.542542        14.7633 
 118   0.0000       0.554756        15.0957 
 119   0.0000       0.557516        15.1708 
 120   0.0000       0.571246        15.5444 
 121   0.0000       0.593563        16.1517 
 122   0.0000       0.600208        16.3325 
 123   0.0000       0.607318        16.5260 
 124   0.0000       0.623560        16.9679 
 125   0.0000       0.627354        17.0712 
 126   0.0000       0.638345        17.3702 
 127   0.0000       0.650607        17.7039 
 128   0.0000       0.668369        18.1872 
 129   0.0000       0.672481        18.2991 
 130   0.0000       0.681276        18.5385 
 131   0.0000       0.688665        18.7395 
 132   0.0000       0.696376        18.9494 
 133   0.0000       0.706366        19.2212 
 134   0.0000       0.709218        19.2988 
 135   0.0000       0.714278        19.4365 
 136   0.0000       0.718264        19.5449 
 137   0.0000       0.722500        19.6602 
 138   0.0000       0.731050        19.8929 
 139   0.0000       0.735539        20.0150 
 140   0.0000       0.740114        20.1395 
 141   0.0000       0.745406        20.2835 
 142   0.0000       0.749759        20.4020 
 143   0.0000       0.752070        20.4649 
 144   0.0000       0.761456        20.7203 
 145   0.0000       0.763569        20.7778 
 146   0.0000       0.766183        20.8489 
 147   0.0000       0.771967        21.0063 
 148   0.0000       0.782166        21.2838 
 149   0.0000       0.785044        21.3621 
 150   0.0000       0.790114        21.5001 
 151   0.0000       0.790441        21.5090 
 152   0.0000       0.798607        21.7312 
 153   0.0000       0.803422        21.8622 
 154   0.0000       0.806545        21.9472 
 155   0.0000       0.809007        22.0142 
 156   0.0000       0.818041        22.2600 
 157   0.0000       0.820887        22.3375 
 158   0.0000       0.824927        22.4474 
 159   0.0000       0.826558        22.4918 
 160   0.0000       0.832831        22.6625 
 161   0.0000       0.834718        22.7138 
 162   0.0000       0.838363        22.8130 
 163   0.0000       0.841874        22.9085 
 164   0.0000       0.854398        23.2494 
 165   0.0000       0.858320        23.3561 
 166   0.0000       0.870075        23.6759 
 167   0.0000       0.886555        24.1244 
 168   0.0000       0.892754        24.2931 
 169   0.0000       0.897280        24.4162 
 170   0.0000       0.912349        24.8263 
 171   0.0000       0.931357        25.3435 
 172   0.0000       0.940516        25.5927 
 173   0.0000       0.950069        25.8527 
 174   0.0000       0.962466        26.1900 
 175   0.0000       0.970565        26.4104 
 176   0.0000       0.986970        26.8568 
 177   0.0000       0.995766        27.0962 
 178   0.0000       1.016185        27.6518 
 179   0.0000       1.038737        28.2655 
 180   0.0000       1.051486        28.6124 
 181   0.0000       1.093502        29.7557 
 182   0.0000       1.115857        30.3640 
 183   0.0000       1.121870        30.5276 
 184   0.0000       1.141812        31.0703 
 185   0.0000       1.144290        31.1377 
 186   0.0000       1.147700        31.2305 
 187   0.0000       1.157587        31.4996 
 188   0.0000       1.167979        31.7823 
 189   0.0000       1.196979        32.5715 
 190   0.0000       1.217613        33.1329 
 191   0.0000       1.245323        33.8870 
 192   0.0000       1.265084        34.4247 
 193   0.0000       1.277850        34.7721 
 194   0.0000       1.290118        35.1059 
 195   0.0000       1.297940        35.3187 
 196   0.0000       1.316621        35.8271 
 197   0.0000       1.332498        36.2591 
 198   0.0000       1.334138        36.3037 
 199   0.0000       1.348043        36.6821 
 200   0.0000       1.358206        36.9587 
 201   0.0000       1.389578        37.8124 
 202   0.0000       1.417724        38.5782 
 203   0.0000       1.437110        39.1058 
 204   0.0000       1.464746        39.8578 
 205   0.0000       1.473448        40.0946 
 206   0.0000       1.493607        40.6431 
 207   0.0000       1.516132        41.2560 
 208   0.0000       1.550428        42.1893 
 209   0.0000       1.566895        42.6374 
 210   0.0000       1.584646        43.1204 
 211   0.0000       1.603685        43.6385 
 212   0.0000       1.620287        44.0902 
 213   0.0000       1.653701        44.9995 
 214   0.0000       1.658084        45.1188 
 215   0.0000       1.667383        45.3718 
 216   0.0000       1.671423        45.4817 
 217   0.0000       1.675822        45.6014 
 218   0.0000       1.724574        46.9280 
 219   0.0000       1.764161        48.0053 
 220   0.0000       1.769730        48.1568 
 221   0.0000       1.777823        48.3770 
 222   0.0000       1.801243        49.0143 
 223   0.0000       1.810040        49.2537 
 224   0.0000       1.818324        49.4791 
 225   0.0000       1.824250        49.6404 
 226   0.0000       1.834959        49.9318 
 227   0.0000       1.840580        50.0847 
 228   0.0000       1.847541        50.2742 
 229   0.0000       1.864949        50.7478 
 230   0.0000       1.869017        50.8585 
 231   0.0000       1.882173        51.2165 
 232   0.0000       1.890302        51.4377 
 233   0.0000       1.895623        51.5825 
 234   0.0000       1.904449        51.8227 
 235   0.0000       1.910639        51.9911 
 236   0.0000       1.916917        52.1620 
 237   0.0000       1.926818        52.4314 
 238   0.0000       1.940936        52.8156 
 239   0.0000       1.949242        53.0416 
 240   0.0000       1.957293        53.2607 
 241   0.0000       1.966047        53.4989 
 242   0.0000       1.972293        53.6688 
 243   0.0000       1.981351        53.9153 
 244   0.0000       1.985731        54.0345 
 245   0.0000       1.989878        54.1473 
 246   0.0000       2.001931        54.4753 
 247   0.0000       2.008095        54.6430 
 248   0.0000       2.021045        54.9954 
 249   0.0000       2.026560        55.1455 
 250   0.0000       2.036420        55.4138 
 251   0.0000       2.050639        55.8007 
 252   0.0000       2.057359        55.9836 
 253   0.0000       2.068420        56.2846 
 254   0.0000       2.077815        56.5402 
 255   0.0000       2.092226        56.9324 
 256   0.0000       2.099602        57.1331 
 257   0.0000       2.110669        57.4342 
 258   0.0000       2.128568        57.9213 
 259   0.0000       2.158161        58.7265 
 260   0.0000       2.165238        58.9191 
 261   0.0000       2.173296        59.1384 
 262   0.0000       2.176728        59.2318 
 263   0.0000       2.197804        59.8053 
 264   0.0000       2.227784        60.6211 
 265   0.0000       2.242858        61.0313 
 266   0.0000       2.261395        61.5357 
 267   0.0000       2.265440        61.6458 
 268   0.0000       2.275999        61.9331 
 269   0.0000       2.284374        62.1610 
 270   0.0000       2.299265        62.5662 
 271   0.0000       2.324504        63.2530 
 272   0.0000       2.358051        64.1658 
 273   0.0000       2.384242        64.8785 
 274   0.0000       2.401821        65.3569 
 275   0.0000       2.431226        66.1570 
 276   0.0000       2.440890        66.4200 
 277   0.0000       2.455551        66.8189 
 278   0.0000       2.467803        67.1523 
 279   0.0000       2.482046        67.5399 
 280   0.0000       2.491083        67.7858 
 281   0.0000       2.498967        68.0003 
 282   0.0000       2.507482        68.2320 
 283   0.0000       2.517243        68.4977 
 284   0.0000       2.538901        69.0870 
 285   0.0000       2.543202        69.2041 
 286   0.0000       2.567105        69.8545 
 287   0.0000       2.590970        70.5039 
 288   0.0000       2.602830        70.8266 
 289   0.0000       2.609707        71.0137 
 290   0.0000       2.620777        71.3150 
 291   0.0000       2.637405        71.7674 
 292   0.0000       2.639419        71.8222 
 293   0.0000       2.700787        73.4922 
 294   0.0000       2.702925        73.5503 
 295   0.0000       2.728418        74.2440 
 296   0.0000       2.737855        74.5008 
 297   0.0000       2.752685        74.9044 
 298   0.0000       2.782508        75.7159 
 299   0.0000       2.801401        76.2300 
 300   0.0000       2.827768        76.9475 
 301   0.0000       2.858853        77.7933 
 302   0.0000       2.869926        78.0947 
 303   0.0000       2.920660        79.4752 
 304   0.0000       2.940648        80.0191 
 305   0.0000       2.947505        80.2057 
 306   0.0000       2.966827        80.7315 
 307   0.0000       3.000355        81.6438 
 308   0.0000       3.048216        82.9462 
 309   0.0000       3.055126        83.1342 
 310   0.0000       3.061275        83.3015 
 311   0.0000       3.089133        84.0596 
 312   0.0000       3.116216        84.7965 
 313   0.0000       3.118037        84.8461 
 314   0.0000       3.149795        85.7103 
 315   0.0000       3.174998        86.3961 
 316   0.0000       3.179083        86.5073 
 317   0.0000       3.213630        87.4473 
 318   0.0000       3.218619        87.5831 
 319   0.0000       3.236274        88.0635 
 320   0.0000       3.348406        91.1148 
 321   0.0000       3.423925        93.1697 

                    ********************************
                    * MULLIKEN POPULATION ANALYSIS *
                    ********************************

-----------------------
MULLIKEN ATOMIC CHARGES
-----------------------
   0 S :    0.108345
   1 C :   -0.131757
   2 C :   -0.083250
   3 C :   -0.038223
   4 C :   -0.101898
   5 H :    0.027159
   6 C :    0.133875
   7 H :    0.038014
   8 H :   -0.003912
   9 C :   -0.098590
  10 H :    0.034367
  11 H :    0.031353
  12 C :   -0.053311
  13 H :    0.031185
  14 H :    0.034568
  15 H :    0.035535
  16 S :    0.084820
  17 C :   -0.101039
  18 C :   -0.016814
  19 C :   -0.089666
  20 C :   -0.133912
  21 H :    0.005744
  22 C :    0.036597
  23 H :    0.050729
  24 H :    0.008004
  25 C :   -0.076071
  26 H :    0.041413
  27 H :    0.018980
  28 C :   -0.016215
  29 H :    0.034443
  30 H :    0.027479
  31 H :    0.032872
  32 H :    0.053340
  33 H :    0.075833
Sum of atomic charges:   -0.0000000

--------------------------------
MULLIKEN REDUCED ORBITAL CHARGES
--------------------------------
  0 S s       :     5.834040  s :     5.834040
      pz      :     3.408315  p :     9.947025
      px      :     3.304147
      py      :     3.234563
      dz2     :     0.022304  d :     0.110590
      dxz     :     0.018772
      dyz     :     0.017854
      dx2y2   :     0.021994
      dxy     :     0.029666
  1 C s       :     3.179496  s :     3.179496
      pz      :     0.959462  p :     2.916432
      px      :     0.984619
      py      :     0.972351
      dz2     :     0.004998  d :     0.035829
      dxz     :     0.009298
      dyz     :     0.005033
      dx2y2   :     0.006657
      dxy     :     0.009843
  2 C s       :     3.063191  s :     3.063191
      pz      :     1.012488  p :     2.976779
      px      :     0.966776
      py      :     0.997515
      dz2     :     0.005598  d :     0.043280
      dxz     :     0.009465
      dyz     :     0.006229
      dx2y2   :     0.011259
      dxy     :     0.010729
  3 C s       :     3.229538  s :     3.229538
      pz      :     0.987106  p :     2.775448
      px      :     0.866418
      py      :     0.921924
      dz2     :     0.005903  d :     0.033237
      dxz     :     0.005838
      dyz     :     0.004659
      dx2y2   :     0.006585
      dxy     :     0.010252
  4 C s       :     3.040335  s :     3.040335
      pz      :     1.076661  p :     3.016395
      px      :     0.924793
      py      :     1.014941
      dz2     :     0.007516  d :     0.045168
      dxz     :     0.008441
      dyz     :     0.006556
      dx2y2   :     0.009997
      dxy     :     0.012657
  5 H s       :     0.948857  s :     0.948857
      pz      :     0.004608  p :     0.023984
      px      :     0.013135
      py      :     0.006241
  6 C s       :     2.945797  s :     2.945797
      pz      :     0.994508  p :     2.886101
      px      :     0.929853
      py      :     0.961740
      dz2     :     0.002912  d :     0.034228
      dxz     :     0.010350
      dyz     :     0.007956
      dx2y2   :     0.002953
      dxy     :     0.010057
  7 H s       :     0.939123  s :     0.939123
      pz      :     0.008332  p :     0.022863
      px      :     0.007191
      py      :     0.007340
  8 H s       :     0.978764  s :     0.978764
      pz      :     0.007703  p :     0.025148
      px      :     0.009229
      py      :     0.008216
  9 C s       :     3.062605  s :     3.062605
      pz      :     1.001113  p :     2.999386
      px      :     0.996890
      py      :     1.001383
      dz2     :     0.005793  d :     0.036599
      dxz     :     0.008350
      dyz     :     0.009422
      dx2y2   :     0.003051
      dxy     :     0.009982
 10 H s       :     0.944409  s :     0.944409
      pz      :     0.007258  p :     0.021224
      px      :     0.006511
      py      :     0.007454
 11 H s       :     0.945859  s :     0.945859
      pz      :     0.005307  p :     0.022788
      px      :     0.009007
      py      :     0.008473
 12 C s       :     3.017471  s :     3.017471
      pz      :     0.987598  p :     3.008183
      px      :     1.011037
      py      :     1.009548
      dz2     :     0.006068  d :     0.027657
      dxz     :     0.003006
      dyz     :     0.008502
      dx2y2   :     0.004972
      dxy     :     0.005108
 13 H s       :     0.945704  s :     0.945704
      pz      :     0.010027  p :     0.023111
      px      :     0.004789
      py      :     0.008295
 14 H s       :     0.941339  s :     0.941339
      pz      :     0.004549  p :     0.024093
      px      :     0.014144
      py      :     0.005400
 15 H s       :     0.940122  s :     0.940122
      pz      :     0.006119  p :     0.024342
      px      :     0.006991
      py      :     0.011233
 16 S s       :     5.838219  s :     5.838219
      pz      :     3.390254  p :     9.968081
      px      :     3.384511
      py      :     3.193316
      dz2     :     0.023493  d :     0.108880
      dxz     :     0.014541
      dyz     :     0.025472
      dx2y2   :     0.021317
      dxy     :     0.024057
 17 C s       :     3.157380  s :     3.157380
      pz      :     0.948044  p :     2.908754
      px      :     0.992644
      py      :     0.968066
      dz2     :     0.008713  d :     0.034905
      dxz     :     0.005540
      dyz     :     0.007458
      dx2y2   :     0.005298
      dxy     :     0.007896
 18 C s       :     3.180579  s :     3.180579
      pz      :     0.916139  p :     2.801440
      px      :     0.926243
      py      :     0.959058
      dz2     :     0.005847  d :     0.034796
      dxz     :     0.006569
      dyz     :     0.007135
      dx2y2   :     0.008707
      dxy     :     0.006537
 19 C s       :     3.078289  s :     3.078289
      pz      :     1.004798  p :     2.970166
      px      :     0.992835
      py      :     0.972533
      dz2     :     0.009242  d :     0.041211
      dxz     :     0.009180
      dyz     :     0.006233
      dx2y2   :     0.008205
      dxy     :     0.008351
 20 C s       :     3.042768  s :     3.042768
      pz      :     1.037404  p :     3.048056
      px      :     0.996395
      py      :     1.014256
      dz2     :     0.010996  d :     0.043089
      dxz     :     0.006120
      dyz     :     0.009682
      dx2y2   :     0.007444
      dxy     :     0.008847
 21 H s       :     0.969584  s :     0.969584
      pz      :     0.012593  p :     0.024672
      px      :     0.005408
      py      :     0.006671
 22 C s       :     2.978399  s :     2.978399
      pz      :     1.002285  p :     2.946789
      px      :     0.961633
      py      :     0.982871
      dz2     :     0.003215  d :     0.038214
      dxz     :     0.008181
      dyz     :     0.010455
      dx2y2   :     0.009274
      dxy     :     0.007088
 23 H s       :     0.927266  s :     0.927266
      pz      :     0.008574  p :     0.022005
      px      :     0.009119
      py      :     0.004312
 24 H s       :     0.969570  s :     0.969570
      pz      :     0.009437  p :     0.022425
      px      :     0.004978
      py      :     0.008010
 25 C s       :     3.026216  s :     3.026216
      pz      :     1.024692  p :     3.011151
      px      :     1.000290
      py      :     0.986169
      dz2     :     0.004972  d :     0.038703
      dxz     :     0.007816
      dyz     :     0.010288
      dx2y2   :     0.011449
      dxy     :     0.004179
 26 H s       :     0.936553  s :     0.936553
      pz      :     0.009706  p :     0.022034
      px      :     0.004164
      py      :     0.008164
 27 H s       :     0.957625  s :     0.957625
      pz      :     0.006467  p :     0.023395
      px      :     0.011457
      py      :     0.005472
 28 C s       :     2.988831  s :     2.988831
      pz      :     0.986300  p :     2.999273
      px      :     1.005340
      py      :     1.007634
      dz2     :     0.004141  d :     0.028110
      dxz     :     0.006472
      dyz     :     0.006854
      dx2y2   :     0.009142
      dxy     :     0.001501
 29 H s       :     0.941994  s :     0.941994
      pz      :     0.005662  p :     0.023563
      px      :     0.004782
      py      :     0.013119
 30 H s       :     0.949126  s :     0.949126
      pz      :     0.010364  p :     0.023395
      px      :     0.004521
      py      :     0.008510
 31 H s       :     0.941395  s :     0.941395
      pz      :     0.006896  p :     0.025733
      px      :     0.012785
      py      :     0.006052
 32 H s       :     0.923210  s :     0.923210
      pz      :     0.008744  p :     0.023451
      px      :     0.005885
      py      :     0.008821
 33 H s       :     0.901543  s :     0.901543
      pz      :     0.004261  p :     0.022624
      px      :     0.008433
      py      :     0.009931


                     *******************************
                     * LOEWDIN POPULATION ANALYSIS *
                     *******************************

----------------------
LOEWDIN ATOMIC CHARGES
----------------------
   0 S :    0.428473
   1 C :   -0.203483
   2 C :   -0.062197
   3 C :   -0.072192
   4 C :   -0.197005
   5 H :    0.025007
   6 C :   -0.012212
   7 H :    0.036742
   8 H :    0.015996
   9 C :   -0.048627
  10 H :    0.029227
  11 H :    0.023809
  12 C :   -0.080020
  13 H :    0.036703
  14 H :    0.024917
  15 H :    0.028764
  16 S :    0.411237
  17 C :   -0.197541
  18 C :   -0.069631
  19 C :   -0.063932
  20 C :   -0.185575
  21 H :    0.024034
  22 C :   -0.047335
  23 H :    0.042999
  24 H :    0.032236
  25 C :   -0.063498
  26 H :    0.019525
  27 H :    0.027284
  28 C :   -0.060407
  29 H :    0.031630
  30 H :    0.026736
  31 H :    0.022717
  32 H :    0.036763
  33 H :    0.038859

-------------------------------
LOEWDIN REDUCED ORBITAL CHARGES
-------------------------------
  0 S s       :     5.486751  s :     5.486751
      pz      :     3.381452  p :     9.947398
      px      :     3.342797
      py      :     3.223150
      dz2     :     0.027078  d :     0.137377
      dxz     :     0.021713
      dyz     :     0.023478
      dx2y2   :     0.027117
      dxy     :     0.037991
  1 C s       :     2.924389  s :     2.924389
      pz      :     1.051168  p :     3.193258
      px      :     1.085637
      py      :     1.056453
      dz2     :     0.011589  d :     0.085836
      dxz     :     0.021993
      dyz     :     0.010171
      dx2y2   :     0.018331
      dxy     :     0.023751
  2 C s       :     2.871834  s :     2.871834
      pz      :     0.994019  p :     3.084921
      px      :     1.079371
      py      :     1.011530
      dz2     :     0.012412  d :     0.105442
      dxz     :     0.021863
      dyz     :     0.014346
      dx2y2   :     0.030466
      dxy     :     0.026356
  3 C s       :     2.879669  s :     2.879669
      pz      :     1.033059  p :     3.106227
      px      :     1.050278
      py      :     1.022890
      dz2     :     0.012735  d :     0.086296
      dxz     :     0.014687
      dyz     :     0.012385
      dx2y2   :     0.018907
      dxy     :     0.027581
  4 C s       :     2.906725  s :     2.906725
      pz      :     1.072282  p :     3.182953
      px      :     1.055393
      py      :     1.055278
      dz2     :     0.016276  d :     0.107328
      dxz     :     0.020253
      dyz     :     0.015693
      dx2y2   :     0.023463
      dxy     :     0.031642
  5 H s       :     0.904319  s :     0.904319
      pz      :     0.014310  p :     0.070674
      px      :     0.036853
      py      :     0.019510
  6 C s       :     2.827855  s :     2.827855
      pz      :     1.034437  p :     3.098822
      px      :     1.026601
      py      :     1.037784
      dz2     :     0.005499  d :     0.085535
      dxz     :     0.027015
      dyz     :     0.020902
      dx2y2   :     0.005665
      dxy     :     0.026453
  7 H s       :     0.897787  s :     0.897787
      pz      :     0.024528  p :     0.065471
      px      :     0.020118
      py      :     0.020825
  8 H s       :     0.907764  s :     0.907764
      pz      :     0.023820  p :     0.076240
      px      :     0.027295
      py      :     0.025125
  9 C s       :     2.839090  s :     2.839090
      pz      :     1.040993  p :     3.121031
      px      :     1.034307
      py      :     1.045730
      dz2     :     0.011950  d :     0.088507
      dxz     :     0.021277
      dyz     :     0.024161
      dx2y2   :     0.005636
      dxy     :     0.025483
 10 H s       :     0.911068  s :     0.911068
      pz      :     0.020816  p :     0.059705
      px      :     0.018921
      py      :     0.019967
 11 H s       :     0.907968  s :     0.907968
      pz      :     0.016307  p :     0.068223
      px      :     0.027499
      py      :     0.024417
 12 C s       :     2.836098  s :     2.836098
      pz      :     1.037970  p :     3.172897
      px      :     1.067185
      py      :     1.067742
      dz2     :     0.014971  d :     0.071025
      dxz     :     0.007530
      dyz     :     0.022361
      dx2y2   :     0.013085
      dxy     :     0.013078
 13 H s       :     0.902235  s :     0.902235
      pz      :     0.028469  p :     0.061062
      px      :     0.011840
      py      :     0.020753
 14 H s       :     0.906876  s :     0.906876
      pz      :     0.013540  p :     0.068206
      px      :     0.039793
      py      :     0.014873
 15 H s       :     0.902909  s :     0.902909
      pz      :     0.018236  p :     0.068327
      px      :     0.019642
      py      :     0.030448
 16 S s       :     5.496313  s :     5.496313
      pz      :     3.390024  p :     9.958774
      px      :     3.388872
      py      :     3.179878
      dz2     :     0.028158  d :     0.133677
      dxz     :     0.015496
      dyz     :     0.032770
      dx2y2   :     0.026136
      dxy     :     0.031116
 17 C s       :     2.936773  s :     2.936773
      pz      :     1.042833  p :     3.178996
      px      :     1.084272
      py      :     1.051890
      dz2     :     0.019885  d :     0.081773
      dxz     :     0.014837
      dyz     :     0.016536
      dx2y2   :     0.011747
      dxy     :     0.018768
 18 C s       :     2.866436  s :     2.866436
      pz      :     1.040088  p :     3.111404
      px      :     1.043476
      py      :     1.027840
      dz2     :     0.014615  d :     0.091791
      dxz     :     0.019448
      dyz     :     0.018018
      dx2y2   :     0.022107
      dxy     :     0.017603
 19 C s       :     2.869399  s :     2.869399
      pz      :     1.034414  p :     3.092479
      px      :     1.033322
      py      :     1.024743
      dz2     :     0.021681  d :     0.102055
      dxz     :     0.024069
      dyz     :     0.016273
      dx2y2   :     0.019348
      dxy     :     0.020684
 20 C s       :     2.905246  s :     2.905246
      pz      :     1.080965  p :     3.176555
      px      :     1.051400
      py      :     1.044190
      dz2     :     0.024616  d :     0.103774
      dxz     :     0.016702
      dyz     :     0.024389
      dx2y2   :     0.017536
      dxy     :     0.020530
 21 H s       :     0.902452  s :     0.902452
      pz      :     0.036118  p :     0.073514
      px      :     0.016786
      py      :     0.020610
 22 C s       :     2.829623  s :     2.829623
      pz      :     1.061541  p :     3.121893
      px      :     1.011921
      py      :     1.048431
      dz2     :     0.006863  d :     0.095818
      dxz     :     0.021315
      dyz     :     0.025985
      dx2y2   :     0.024875
      dxy     :     0.016781
 23 H s       :     0.894324  s :     0.894324
      pz      :     0.022406  p :     0.062677
      px      :     0.026967
      py      :     0.013305
 24 H s       :     0.904524  s :     0.904524
      pz      :     0.025606  p :     0.063240
      px      :     0.014009
      py      :     0.023626
 25 C s       :     2.829666  s :     2.829666
      pz      :     1.054092  p :     3.138384
      px      :     1.042419
      py      :     1.041873
      dz2     :     0.010030  d :     0.095448
      dxz     :     0.020140
      dyz     :     0.026925
      dx2y2   :     0.028920
      dxy     :     0.009434
 26 H s       :     0.918583  s :     0.918583
      pz      :     0.027408  p :     0.061892
      px      :     0.011732
      py      :     0.022753
 27 H s       :     0.904666  s :     0.904666
      pz      :     0.018498  p :     0.068050
      px      :     0.034067
      py      :     0.015485
 28 C s       :     2.825582  s :     2.825582
      pz      :     1.044756  p :     3.162941
      px      :     1.055881
      py      :     1.062304
      dz2     :     0.009424  d :     0.071884
      dxz     :     0.017848
      dyz     :     0.017917
      dx2y2   :     0.023277
      dxy     :     0.003418
 29 H s       :     0.902880  s :     0.902880
      pz      :     0.015291  p :     0.065489
      px      :     0.013589
      py      :     0.036609
 30 H s       :     0.909021  s :     0.909021
      pz      :     0.028933  p :     0.064243
      px      :     0.012716
      py      :     0.022594
 31 H s       :     0.903790  s :     0.903790
      pz      :     0.019934  p :     0.073493
      px      :     0.037688
      py      :     0.015871
 32 H s       :     0.892519  s :     0.892519
      pz      :     0.026611  p :     0.070718
      px      :     0.016409
      py      :     0.027699
 33 H s       :     0.890709  s :     0.890709
      pz      :     0.015250  p :     0.070432
      px      :     0.024693
      py      :     0.030489


                      *****************************
                      * MAYER POPULATION ANALYSIS *
                      *****************************

  NA   - Mulliken gross atomic population
  ZA   - Total nuclear charge
  QA   - Mulliken gross atomic charge
  VA   - Mayer's total valence
  BVA  - Mayer's bonded valence
  FA   - Mayer's free valence

  ATOM       NA         ZA         QA         VA         BVA        FA
  0 S     15.8917    16.0000     0.1083     2.4804     2.4804     0.0000
  1 C      6.1318     6.0000    -0.1318     3.8615     3.8615     0.0000
  2 C      6.0832     6.0000    -0.0832     4.0075     4.0075    -0.0000
  3 C      6.0382     6.0000    -0.0382     3.9292     3.9292     0.0000
  4 C      6.1019     6.0000    -0.1019     3.9055     3.9055    -0.0000
  5 H      0.9728     1.0000     0.0272     1.0067     1.0067    -0.0000
  6 C      5.8661     6.0000     0.1339     3.9633     3.9633     0.0000
  7 H      0.9620     1.0000     0.0380     0.9831     0.9831     0.0000
  8 H      1.0039     1.0000    -0.0039     0.9950     0.9950    -0.0000
  9 C      6.0986     6.0000    -0.0986     4.0782     4.0782     0.0000
 10 H      0.9656     1.0000     0.0344     0.9755     0.9755     0.0000
 11 H      0.9686     1.0000     0.0314     0.9776     0.9776    -0.0000
 12 C      6.0533     6.0000    -0.0533     3.9724     3.9724     0.0000
 13 H      0.9688     1.0000     0.0312     0.9851     0.9851    -0.0000
 14 H      0.9654     1.0000     0.0346     0.9986     0.9986     0.0000
 15 H      0.9645     1.0000     0.0355     0.9873     0.9873     0.0000
 16 S     15.9152    16.0000     0.0848     2.4983     2.4983    -0.0000
 17 C      6.1010     6.0000    -0.1010     3.8129     3.8129    -0.0000
 18 C      6.0168     6.0000    -0.0168     3.9599     3.9599    -0.0000
 19 C      6.0897     6.0000    -0.0897     4.0208     4.0208     0.0000
 20 C      6.1339     6.0000    -0.1339     3.9318     3.9318     0.0000
 21 H      0.9943     1.0000     0.0057     0.9997     0.9997    -0.0000
 22 C      5.9634     6.0000     0.0366     3.9615     3.9615    -0.0000
 23 H      0.9493     1.0000     0.0507     0.9813     0.9813    -0.0000
 24 H      0.9920     1.0000     0.0080     0.9881     0.9881    -0.0000
 25 C      6.0761     6.0000    -0.0761     4.0702     4.0702    -0.0000
 26 H      0.9586     1.0000     0.0414     0.9973     0.9973     0.0000
 27 H      0.9810     1.0000     0.0190     0.9748     0.9748     0.0000
 28 C      6.0162     6.0000    -0.0162     3.9796     3.9796    -0.0000
 29 H      0.9656     1.0000     0.0344     0.9897     0.9897    -0.0000
 30 H      0.9725     1.0000     0.0275     0.9906     0.9906     0.0000
 31 H      0.9671     1.0000     0.0329     0.9958     0.9958    -0.0000
 32 H      0.9467     1.0000     0.0533     1.0051     1.0051    -0.0000
 33 H      0.9242     1.0000     0.0758     0.9915     0.9915    -0.0000

  Mayer bond orders larger than 0.100000
B(  0-S ,  1-C ) :   1.1245 B(  0-S ,  4-C ) :   1.1392 B(  1-C ,  2-C ) :   1.6635 
B(  1-C , 32-H ) :   0.9539 B(  2-C ,  3-C ) :   1.2044 B(  2-C ,  6-C ) :   1.0058 
B(  3-C ,  4-C ) :   1.5730 B(  3-C ,  5-H ) :   0.9859 B(  4-C , 20-C ) :   1.0710 
B(  6-C ,  7-H ) :   0.9444 B(  6-C ,  8-H ) :   0.9377 B(  6-C ,  9-C ) :   1.0750 
B(  9-C , 10-H ) :   0.9582 B(  9-C , 11-H ) :   0.9610 B(  9-C , 12-C ) :   1.0592 
B( 12-C , 13-H ) :   0.9707 B( 12-C , 14-H ) :   0.9804 B( 12-C , 15-H ) :   0.9755 
B( 16-S , 17-C ) :   1.1562 B( 16-S , 20-C ) :   1.1438 B( 17-C , 18-C ) :   1.5870 
B( 17-C , 33-H ) :   0.9649 B( 18-C , 19-C ) :   1.2609 B( 18-C , 21-H ) :   0.9933 
B( 19-C , 20-C ) :   1.5662 B( 19-C , 22-C ) :   1.0207 B( 22-C , 23-H ) :   0.9340 
B( 22-C , 24-H ) :   0.9263 B( 22-C , 25-C ) :   1.0862 B( 25-C , 26-H ) :   0.9402 
B( 25-C , 27-H ) :   0.9437 B( 25-C , 28-C ) :   1.0699 B( 28-C , 29-H ) :   0.9725 
B( 28-C , 30-H ) :   0.9740 B( 28-C , 31-H ) :   0.9711 

-------
TIMINGS
-------

Total SCF time: 0 days 0 hours 0 min 27 sec 

Total time                  ....      27.262 sec
Sum of individual times     ....      26.320 sec  ( 96.5%)

Fock matrix formation       ....      24.450 sec  ( 89.7%)
  XC integration            ....       1.533 sec  (  6.3% of F)
    Basis function eval.    ....       0.209 sec  ( 13.6% of XC)
    Density eval.           ....       0.141 sec  (  9.2% of XC)
    XC-Functional eval.     ....       0.162 sec  ( 10.6% of XC)
    XC-Potential eval.      ....       0.176 sec  ( 11.5% of XC)
Diagonalization             ....       0.142 sec  (  0.5%)
Density matrix formation    ....       0.016 sec  (  0.1%)
Population analysis         ....       0.054 sec  (  0.2%)
Initial guess               ....       0.194 sec  (  0.7%)
Orbital Transformation      ....       0.000 sec  (  0.0%)
Orbital Orthonormalization  ....       0.000 sec  (  0.0%)
DIIS solution               ....       0.147 sec  (  0.5%)
SOSCF solution              ....       0.104 sec  (  0.4%)
Grid generation             ....       1.214 sec  (  4.5%)


-------------------------------------------------------------------------------
                          DFT DISPERSION CORRECTION                            
                                                                               
                              DFTD3 V3.1  Rev 1                                
                              USING zero damping                               
-------------------------------------------------------------------------------
The omegaB97X-D3 functional is recognized. Fit by Chai et al.
Active option DFTDOPT                   ...         3   

molecular C6(AA) [au] = 14176.240778 


            DFT-D V3
 parameters
 s6 scaling factor         :     1.0000 
 rs6 scaling factor        :     1.2810 
 s8 scaling factor         :     1.0000 
 rs8 scaling factor        :     1.0940 
 Damping factor alpha6     :    14.0000 
 Damping factor alpha8     :    16.0000 
 ad hoc parameters k1-k3   :    16.0000     1.3333    -4.0000 

 Edisp/kcal,au: -9.461325023991  -0.015077579552 
 E6   /kcal   :  -4.343719124 
 E8   /kcal   :  -5.117605900 
 % E8         :  54.089737821 

-------------------------   ----------------
Dispersion correction           -0.015077580
-------------------------   ----------------


-------------------------   --------------------
FINAL SINGLE POINT ENERGY     -1339.873062296187
-------------------------   --------------------


                            ***************************************
                            *     ORCA property calculations      *
                            ***************************************

                                    ---------------------
                                    Active property flags
                                    ---------------------
   (+) Dipole Moment


------------------------------------------------------------------------------
                       ORCA ELECTRIC PROPERTIES CALCULATION
------------------------------------------------------------------------------

Dipole Moment Calculation                       ... on
Quadrupole Moment Calculation                   ... off
Polarizability Calculation                      ... off
GBWName                                         ... config_6224.gbw
Electron density file                           ... config_6224.scfp
The origin for moment calculation is the CENTER OF MASS  = (-81.337651, 27.178717 154.026921)

-------------
DIPOLE MOMENT
-------------
                                X             Y             Z
Electronic contribution:     -2.72145      17.07021      -7.83936
Nuclear contribution   :      2.83042     -17.26665       7.99667
                        -----------------------------------------
Total Dipole Moment    :      0.10896      -0.19644       0.15731
                        -----------------------------------------
Magnitude (a.u.)       :      0.27424
Magnitude (Debye)      :      0.69706



--------------------
Rotational spectrum 
--------------------
 
Rotational constants in cm-1:     0.020083     0.008918     0.007751 
Rotational constants in MHz :   602.087331   267.361263   232.372596 

 Dipole components along the rotational axes: 
x,y,z [a.u.] :    -0.081287     0.095617     0.243838 
x,y,z [Debye]:    -0.206616     0.243040     0.619786 

 

Timings for individual modules:

Sum of individual times         ...       28.369 sec (=   0.473 min)
GTO integral calculation        ...        0.758 sec (=   0.013 min)   2.7 %
SCF iterations                  ...       27.611 sec (=   0.460 min)  97.3 %
                             ****ORCA TERMINATED NORMALLY****
TOTAL RUN TIME: 0 days 0 hours 0 minutes 28 seconds 997 msec
