
                                 *****************
                                 * O   R   C   A *
                                 *****************

           --- An Ab Initio, DFT and Semiempirical electronic structure package ---

                  #######################################################
                  #                        -***-                        #
                  #          Department of theory and spectroscopy      #
                  #               Directorship: Frank Neese             #
                  #        Max Planck Institute fuer Kohlenforschung    #
                  #                Kaiser Wilhelm Platz 1               #
                  #                 D-45470 Muelheim/Ruhr               #
                  #                      Germany                        #
                  #                                                     #
                  #                  All rights reserved                #
                  #                        -***-                        #
                  #######################################################


                         Program Version 4.2.1 -  RELEASE  -


 With contributions from (in alphabetic order):
   Daniel Aravena         : Magnetic Suceptibility
   Michael Atanasov       : Ab Initio Ligand Field Theory (pilot matlab implementation)
   Alexander A. Auer      : GIAO ZORA, VPT2
   Ute Becker             : Parallelization
   Giovanni Bistoni       : ED, misc. LED, open-shell LED, HFLD
   Martin Brehm           : Molecular dynamics
   Dmytro Bykov           : SCF Hessian
   Vijay G. Chilkuri      : MRCI spin determinant printing, contributions to CSF-ICE
   Dipayan Datta          : RHF DLPNO-CCSD density
   Achintya Kumar Dutta   : EOM-CC, STEOM-CC
   Dmitry Ganyushin       : Spin-Orbit,Spin-Spin,Magnetic field MRCI
   Miquel Garcia          : C-PCM Hessian, Gaussian charge scheme
   Yang Guo               : DLPNO-NEVPT2, CIM, IAO-localization
   Andreas Hansen         : Spin unrestricted coupled pair/coupled cluster methods
   Benjamin Helmich-Paris : CASSCF linear response (MC-RPA)
   Lee Huntington         : MR-EOM, pCC
   Robert Izsak           : Overlap fitted RIJCOSX, COSX-SCS-MP3, EOM
   Christian Kollmar      : KDIIS, OOCD, Brueckner-CCSD(T), CCSD density
   Simone Kossmann        : Meta GGA functionals, TD-DFT gradient, OOMP2, MP2 Hessian
   Martin Krupicka        : AUTO-CI
   Lucas Lang             : DCDCAS
   Dagmar Lenk            : GEPOL surface, SMD
   Dimitrios Liakos       : Extrapolation schemes; Compound Job, initial MDCI parallelization
   Dimitrios Manganas     : Further ROCIS development; embedding schemes
   Dimitrios Pantazis     : SARC Basis sets
   Taras Petrenko         : DFT Hessian,TD-DFT gradient, ASA, ECA, R-Raman, ABS, FL, XAS/XES, NRVS
   Peter Pinski           : DLPNO-MP2, DLPNO-MP2 Gradient
   Christoph Reimann      : Effective Core Potentials
   Marius Retegan         : Local ZFS, SOC
   Christoph Riplinger    : Optimizer, TS searches, QM/MM, DLPNO-CCSD(T), (RO)-DLPNO pert. Triples
   Tobias Risthaus        : Range-separated hybrids, TD-DFT gradient, RPA, STAB
   Michael Roemelt        : Original ROCIS implementation
   Masaaki Saitow         : Open-shell DLPNO-CCSD energy and density
   Barbara Sandhoefer     : DKH picture change effects
   Avijit Sen             : IP-ROCIS
   Kantharuban Sivalingam : CASSCF convergence, NEVPT2, FIC-MRCI
   Bernardo de Souza      : ESD, SOC TD-DFT
   Georgi Stoychev        : AutoAux, RI-MP2 NMR
   Willem Van den Heuvel  : Paramagnetic NMR
   Boris Wezisla          : Elementary symmetry handling
   Frank Wennmohs         : Technical directorship


 We gratefully acknowledge several colleagues who have allowed us to
 interface, adapt or use parts of their codes:
   Stefan Grimme, W. Hujo, H. Kruse,             : VdW corrections, initial TS optimization,
                  C. Bannwarth                     DFT functionals, gCP, sTDA/sTD-DF
   Ed Valeev, F. Pavosevic, A. Kumar             : LibInt (2-el integral package), F12 methods
   Garnet Chan, S. Sharma, J. Yang, R. Olivares  : DMRG
   Ulf Ekstrom                                   : XCFun DFT Library
   Mihaly Kallay                                 : mrcc  (arbitrary order and MRCC methods)
   Andreas Klamt, Michael Diedenhofen            : otool_cosmo (COSMO solvation model)
   Jiri Pittner, Ondrej Demel                    : Mk-CCSD
   Frank Weinhold                                : gennbo (NPA and NBO analysis)
   Christopher J. Cramer and Donald G. Truhlar   : smd solvation model
   Lars Goerigk                                  : TD-DFT with DH, B97 family of functionals
   V. Asgeirsson, H. Jonsson                     : NEB implementation
   FAccTs GmbH                                   : IRC, NEB, NEB-TS, Multilevel, MM, QM/MM, CI optimization
   S Lehtola, MJT Oliveira, MAL Marques          : LibXC Library


 Your calculation uses the libint2 library for the computation of 2-el integrals
 For citations please refer to: http://libint.valeyev.net

 Your ORCA version has been built with support for libXC version: 4.2.3
 For citations please refer to: https://tddft.org/programs/libxc/

 This ORCA versions uses:
   CBLAS   interface :  Fast vector & matrix operations
   LAPACKE interface :  Fast linear algebra routines
   SCALAPACK package :  Parallel linear algebra routines


Your calculation utilizes the atom-pairwise dispersion correction
with the zero-damping scheme (D30)
Cite in your paper:
S.Grimme, J.Antony, S.Ehrlich and H.Krieg, J.Chem.Phys., 132, (2010), 154104 
   

XCFun DFT library Copyright 2009-2010 Ulf Ekstrom and contributors.
See http://admol.org/xcfun for more information. This is free soft-
ware; see the source code for copying conditions. There is ABSOLUTELY
NO WARRANTY; not even for MERCHANTABILITY or FITNESS FOR A PARTICULAR
PURPOSE. For details see the documentation. Scientific users of this 
library should cite U. Ekstrom, L. Visscher, R. Bast, A. J. Thorvald-
sen and K. Ruud; J.Chem.Theor.Comp. 2010, DOI: 10.1021/ct100117s
XCFun Version 0.99 
----- Orbital basis set information -----
Your calculation utilizes the basis: def2-SVP
   F. Weigend and R. Ahlrichs, Phys. Chem. Chem. Phys. 7, 3297 (2005).

================================================================================
                                        WARNINGS
                       Please study these warnings very carefully!
================================================================================


INFO   : the flag for use of LIBINT has been found!

================================================================================
                                       INPUT FILE
================================================================================
NAME = config_1228.inp
|  1> ! wB97X-D3 SP def2-SVP
|  2> %pal
|  3> nprocs 16
|  4> end
|  5> 
|  6> * xyz 0 1
|  7> S 	 10.0968 	 23.0903 	 39.7537 	 
|  8> C 	 8.45799 	 23.7894 	 40.0074 	 
|  9> C 	 8.52979 	 24.8716 	 40.835 	 
| 10> C 	 9.82576 	 24.9517 	 41.5002 	 
| 11> C 	 10.7522 	 24.0173 	 41.0592 	 
| 12> H 	 10.1083 	 25.5906 	 42.3419 	 
| 13> C 	 7.37089 	 25.808 	 41.0474 	 
| 14> H 	 6.48972 	 25.3803 	 40.6507 	 
| 15> H 	 7.49866 	 26.7437 	 40.5238 	 
| 16> C 	 7.24045 	 26.2111 	 42.4822 	 
| 17> H 	 7.67535 	 25.4311 	 43.1486 	 
| 18> H 	 7.9011 	 27.073 	 42.6584 	 
| 19> C 	 5.76112 	 26.5115 	 42.8552 	 
| 20> H 	 5.25899 	 25.5642 	 42.9075 	 
| 21> H 	 5.83217 	 27.0481 	 43.7743 	 
| 22> H 	 5.21147 	 27.1737 	 42.1252 	 
| 23> S 	 11.8064 	 23.5922 	 43.4295 	 
| 24> C 	 13.4663 	 23.1153 	 43.591 	 
| 25> C 	 14.1595 	 23.0748 	 42.3902 	 
| 26> C 	 13.2587 	 23.2938 	 41.3056 	 
| 27> C 	 11.9917 	 23.7087 	 41.6997 	 
| 28> H 	 15.2131 	 22.7457 	 42.3336 	 
| 29> C 	 13.7183 	 23.1419 	 39.8694 	 
| 30> H 	 12.9119 	 23.6765 	 39.1959 	 
| 31> H 	 13.678 	 22.0929 	 39.6627 	 
| 32> C 	 15.1264 	 23.6099 	 39.4626 	 
| 33> H 	 15.9319 	 23.3686 	 40.1147 	 
| 34> H 	 15.0836 	 24.6782 	 39.3736 	 
| 35> C 	 15.5434 	 23.1016 	 38.0165 	 
| 36> H 	 16.3634 	 23.7735 	 37.7195 	 
| 37> H 	 14.7124 	 23.3868 	 37.3617 	 
| 38> H 	 15.6939 	 22.0386 	 37.8329 	 
| 39> H 	 7.64497 	 23.5169 	 39.4871 	 
| 40> H 	 13.9451 	 22.8318 	 44.4952 	 
| 41> *
| 42> 
| 43>                          ****END OF INPUT****
================================================================================

                       ****************************
                       * Single Point Calculation *
                       ****************************

---------------------------------
CARTESIAN COORDINATES (ANGSTROEM)
---------------------------------
  S     10.096800   23.090300   39.753700
  C      8.457990   23.789400   40.007400
  C      8.529790   24.871600   40.835000
  C      9.825760   24.951700   41.500200
  C     10.752200   24.017300   41.059200
  H     10.108300   25.590600   42.341900
  C      7.370890   25.808000   41.047400
  H      6.489720   25.380300   40.650700
  H      7.498660   26.743700   40.523800
  C      7.240450   26.211100   42.482200
  H      7.675350   25.431100   43.148600
  H      7.901100   27.073000   42.658400
  C      5.761120   26.511500   42.855200
  H      5.258990   25.564200   42.907500
  H      5.832170   27.048100   43.774300
  H      5.211470   27.173700   42.125200
  S     11.806400   23.592200   43.429500
  C     13.466300   23.115300   43.591000
  C     14.159500   23.074800   42.390200
  C     13.258700   23.293800   41.305600
  C     11.991700   23.708700   41.699700
  H     15.213100   22.745700   42.333600
  C     13.718300   23.141900   39.869400
  H     12.911900   23.676500   39.195900
  H     13.678000   22.092900   39.662700
  C     15.126400   23.609900   39.462600
  H     15.931900   23.368600   40.114700
  H     15.083600   24.678200   39.373600
  C     15.543400   23.101600   38.016500
  H     16.363400   23.773500   37.719500
  H     14.712400   23.386800   37.361700
  H     15.693900   22.038600   37.832900
  H      7.644970   23.516900   39.487100
  H     13.945100   22.831800   44.495200

----------------------------
CARTESIAN COORDINATES (A.U.)
----------------------------
  NO LB      ZA    FRAG     MASS         X           Y           Z
   0 S    16.0000    0    32.060   19.080187   43.634343   75.123606
   1 C     6.0000    0    12.011   15.983285   44.955451   75.603029
   2 C     6.0000    0    12.011   16.118967   47.000513   77.166967
   3 C     6.0000    0    12.011   18.567995   47.151880   78.424013
   4 C     6.0000    0    12.011   20.318713   45.386119   77.590643
   5 H     1.0000    0     1.008   19.101919   48.359226   80.014595
   6 C     6.0000    0    12.011   13.928963   48.770052   77.568345
   7 H     1.0000    0     1.008   12.263793   47.961816   76.818690
   8 H     1.0000    0     1.008   14.170414   50.538269   76.578884
   9 C     6.0000    0    12.011   13.682468   49.531801   80.279724
  10 H     1.0000    0     1.008   14.504309   48.057814   81.539037
  11 H     1.0000    0     1.008   14.930915   51.160556   80.612693
  12 C     6.0000    0    12.011   10.886939   50.099474   80.984591
  13 H     1.0000    0     1.008    9.938051   48.309337   81.083424
  14 H     1.0000    0     1.008   11.021204   51.113501   82.721439
  15 H     1.0000    0     1.008    9.848251   51.350851   79.605091
  16 S    16.0000    0    32.060   22.310863   44.582797   82.069861
  17 C     6.0000    0    12.011   25.447619   43.681587   82.375052
  18 C     6.0000    0    12.011   26.757577   43.605053   80.105869
  19 C     6.0000    0    12.011   25.055312   44.018903   78.056272
  20 C     6.0000    0    12.011   22.661029   44.802950   78.801013
  21 H     1.0000    0     1.008   28.748593   42.983144   79.998910
  22 C     6.0000    0    12.011   25.923830   43.731853   75.342247
  23 H     1.0000    0     1.008   24.399955   44.742101   74.069517
  24 H     1.0000    0     1.008   25.847674   41.749531   74.951641
  25 C     6.0000    0    12.011   28.584753   44.616245   74.573507
  26 H     1.0000    0     1.008   30.106928   44.160254   75.805797
  27 H     1.0000    0     1.008   28.503873   46.635039   74.405321
  28 C     6.0000    0    12.011   29.372769   43.655697   71.840774
  29 H     1.0000    0     1.008   30.922345   44.925404   71.279525
  30 H     1.0000    0     1.008   27.802407   44.194647   70.603381
  31 H     1.0000    0     1.008   29.657173   41.646918   71.493820
  32 H     1.0000    0     1.008   14.446900   44.440501   74.619805
  33 H     1.0000    0     1.008   26.352420   43.145849   84.083742

--------------------------------
INTERNAL COORDINATES (ANGSTROEM)
--------------------------------
 S      0   0   0     0.000000000000     0.00000000     0.00000000
 C      1   0   0     1.799667390409     0.00000000     0.00000000
 C      2   1   0     1.364270442398   110.22670893     0.00000000
 C      3   2   1     1.458919220142   111.52428546   346.89310556
 C      4   3   2     1.387759141062   114.27752509     6.46960133
 H      4   3   2     1.093837717214   127.76130663   192.12248857
 C      3   2   1     1.504994328893   122.59108140   169.20005700
 H      7   3   2     1.056768067695   109.71163903    12.51276558
 H      7   3   2     1.079822496015   112.30913961   255.51398491
 C      7   3   2     1.496046537913   111.72413349   139.09563066
 H     10   7   3     1.114283164191   110.54410663   333.95657256
 H     10   7   3     1.100171110555   108.19978668    85.58303687
 C     10   7   3     1.554923280712   111.41178190   209.66133848
 H     13  10   7     1.073427741816   106.63271142    73.40510869
 H     13  10   7     1.066645429606   103.91714999   196.07159051
 H     13  10   7     1.128505189399   114.93386665   312.81192086
 S      5   4   3     2.628758212541    95.16733974   217.37580061
 C     17   5   4     1.734584639042   120.80856272   208.98671739
 C     18  17   5     1.387114678028   113.93203580     3.92562166
 C     19  18  17     1.426800196243   109.75924802   353.26447602
 C     20  19  18     1.390232289943   113.93487160    10.15610903
 H     19  18  17     1.105252609135   121.96579622   182.70913215
 C     20  19  18     1.515577846895   120.89794316   187.18807550
 H     23  20  19     1.178847051148   106.76849181   196.53292751
 H     23  20  19     1.069929894900   105.65920306    81.75720892
 C     23  20  19     1.538588915208   119.84107551   321.89032723
 H     26  23  20     1.064091325968   117.50187201    43.48620298
 H     26  23  20     1.072854943597   106.75660888   282.28649278
 C     26  23  20     1.588541186120   112.55699288   167.96699078
 H     29  26  23     1.100935334159   104.23012843   160.59687481
 H     29  26  23     1.095747726441   105.16708817    51.30305198
 H     29  26  23     1.089186949059   120.13301079   293.49427512
 H      2   1   3     1.002980488544   124.01990313   170.16450887
 H     18  17   5     1.061696439666   125.75130422   186.38642315

---------------------------
INTERNAL COORDINATES (A.U.)
---------------------------
 S      0   0   0     0.000000000000     0.00000000     0.00000000
 C      1   0   0     3.400878500021     0.00000000     0.00000000
 C      2   1   0     2.578097508735   110.22670893     0.00000000
 C      3   2   1     2.756957777583   111.52428546   346.89310556
 C      4   3   2     2.622484716452   114.27752509     6.46960133
 H      4   3   2     2.067053720488   127.76130663   192.12248857
 C      3   2   1     2.844027114712   122.59108140   169.20005700
 H      7   3   2     1.997002235017   109.71163903    12.51276558
 H      7   3   2     2.040568790716   112.30913961   255.51398491
 C      7   3   2     2.827118240256   111.72413349   139.09563066
 H     10   7   3     2.105690015961   110.54410663   333.95657256
 H     10   7   3     2.079022099401   108.19978668    85.58303687
 C     10   7   3     2.938379159804   111.41178190   209.66133848
 H     13  10   7     2.028484456586   106.63271142    73.40510869
 H     13  10   7     2.015667743955   103.91714999   196.07159051
 H     13  10   7     2.132565748673   114.93386665   312.81192086
 S      5   4   3     4.967633093998    95.16733974   217.37580061
 C     17   5   4     3.277889923896   120.80856272   208.98671739
 C     18  17   5     2.621266857815   113.93203580     3.92562166
 C     19  18  17     2.696261618725   109.75924802   353.26447602
 C     20  19  18     2.627158290526   113.93487160    10.15610903
 H     19  18  17     2.088624740067   121.96579622   182.70913215
 C     20  19  18     2.864027065270   120.89794316   187.18807550
 H     23  20  19     2.227698080450   106.76849181   196.53292751
 H     23  20  19     2.021874483856   105.65920306    81.75720892
 C     23  20  19     2.907511682430   119.84107551   321.89032723
 H     26  23  20     2.010841187560   117.50187201    43.48620298
 H     26  23  20     2.027402024821   106.75660888   282.28649278
 C     26  23  20     3.001907794222   112.55699288   167.96699078
 H     29  26  23     2.080466272718   104.23012843   160.59687481
 H     29  26  23     2.070663114840   105.16708817    51.30305198
 H     29  26  23     2.058265042362   120.13301079   293.49427512
 H      2   1   3     1.895358441015   124.01990313   170.16450887
 H     18  17   5     2.006315508328   125.75130422   186.38642315

---------------------
BASIS SET INFORMATION
---------------------
There are 3 groups of distinct atoms

 Group   1 Type S   : 10s7p1d contracted to 4s3p1d pattern {5311/511/1}
 Group   2 Type C   : 7s4p1d contracted to 3s2p1d pattern {511/31/1}
 Group   3 Type H   : 4s1p contracted to 2s1p pattern {31/1}

Atom   0S    basis set group =>   1
Atom   1C    basis set group =>   2
Atom   2C    basis set group =>   2
Atom   3C    basis set group =>   2
Atom   4C    basis set group =>   2
Atom   5H    basis set group =>   3
Atom   6C    basis set group =>   2
Atom   7H    basis set group =>   3
Atom   8H    basis set group =>   3
Atom   9C    basis set group =>   2
Atom  10H    basis set group =>   3
Atom  11H    basis set group =>   3
Atom  12C    basis set group =>   2
Atom  13H    basis set group =>   3
Atom  14H    basis set group =>   3
Atom  15H    basis set group =>   3
Atom  16S    basis set group =>   1
Atom  17C    basis set group =>   2
Atom  18C    basis set group =>   2
Atom  19C    basis set group =>   2
Atom  20C    basis set group =>   2
Atom  21H    basis set group =>   3
Atom  22C    basis set group =>   2
Atom  23H    basis set group =>   3
Atom  24H    basis set group =>   3
Atom  25C    basis set group =>   2
Atom  26H    basis set group =>   3
Atom  27H    basis set group =>   3
Atom  28C    basis set group =>   2
Atom  29H    basis set group =>   3
Atom  30H    basis set group =>   3
Atom  31H    basis set group =>   3
Atom  32H    basis set group =>   3
Atom  33H    basis set group =>   3


           ************************************************************
           *        Program running with 16 parallel MPI-processes    *
           *              working on a common directory               *
           ************************************************************
------------------------------------------------------------------------------
                           ORCA GTO INTEGRAL CALCULATION
------------------------------------------------------------------------------

                         BASIS SET STATISTICS AND STARTUP INFO

 # of primitive gaussian shells          ...  294
 # of primitive gaussian functions       ...  534
 # of contracted shells                  ...  154
 # of contracted basis functions         ...  322
 Highest angular momentum                ...    2
 Maximum contraction depth               ...    5
 Integral package used                   ... LIBINT
 Integral threshhold            Thresh   ...  1.000e-10
 Primitive cut-off              TCut     ...  1.000e-11


------------------------------ INTEGRAL EVALUATION ----------------------------


 * One electron integrals 
 Pre-screening matrix                    ... done
 Shell pair data                         ... done (   0.003 sec)



           ************************************************************
           *        Program running with 16 parallel MPI-processes    *
           *              working on a common directory               *
           ************************************************************
-------------------------------------------------------------------------------
                                 ORCA SCF
-------------------------------------------------------------------------------

------------
SCF SETTINGS
------------
Hamiltonian:
 Density Functional     Method          .... DFT(GTOs)
 Exchange Functional    Exchange        .... WB97X-D3
 Correlation Functional Correlation     .... WB97X-D3
 Gradients option       PostSCFGGA      .... off
 Hybrid DFT is turned on
   Fraction HF Exchange ScalHFX         ....  0.195728
   Scaling of DF-GGA-X  ScalDFX         ....  0.000000
   Scaling of DF-GGA-C  ScalDFC         ....  1.000000
   Scaling of DF-LDA-C  ScalLDAC        ....  1.000000
   Perturbative correction              ....  0.000000
   Density functional embedding theory  .... OFF
 Long-range corrected/Screened/Range-Separated Hybrid DFT is turned on
   Amount of maximum screened exact exchange              ....  0.804272
   Range separation parameter mu (erf(mu*r12)/r12)        ....  0.250000


General Settings:
 Integral files         IntName         .... config_1228
 Hartree-Fock type      HFTyp           .... RHF
 Total Charge           Charge          ....    0
 Multiplicity           Mult            ....    1
 Number of Electrons    NEL             ....  134
 Basis Dimension        Dim             ....  322
 Nuclear Repulsion      ENuc            ....   1267.9518236253 Eh

Convergence Acceleration:
 DIIS                   CNVDIIS         .... on
   Start iteration      DIISMaxIt       ....    12
   Startup error        DIISStart       ....  0.200000
   # of expansion vecs  DIISMaxEq       ....     5
   Bias factor          DIISBfac        ....   1.050
   Max. coefficient     DIISMaxC        ....  10.000
 Newton-Raphson         CNVNR           .... off
 SOSCF                  CNVSOSCF        .... on
   Start iteration      SOSCFMaxIt      ....   150
   Startup grad/error   SOSCFStart      ....  0.003300
 Level Shifting         CNVShift        .... on
   Level shift para.    LevelShift      ....    0.2500
   Turn off err/grad.   ShiftErr        ....    0.0010
 Zerner damping         CNVZerner       .... off
 Static damping         CNVDamp         .... on
   Fraction old density DampFac         ....    0.7000
   Max. Damping (<1)    DampMax         ....    0.9800
   Min. Damping (>=0)   DampMin         ....    0.0000
   Turn off err/grad.   DampErr         ....    0.1000
 Fernandez-Rico         CNVRico         .... off

SCF Procedure:
 Maximum # iterations   MaxIter         ....   125
 SCF integral mode      SCFMode         .... Direct
   Integral package                     .... LIBINT
 Reset frequency        DirectResetFreq ....    20
 Integral Threshold     Thresh          ....  1.000e-10 Eh
 Primitive CutOff       TCut            ....  1.000e-11 Eh

Convergence Tolerance:
 Convergence Check Mode ConvCheckMode   .... Total+1el-Energy
 Convergence forced     ConvForced      .... 0
 Energy Change          TolE            ....  1.000e-06 Eh
 1-El. energy change                    ....  1.000e-03 Eh
 Orbital Gradient       TolG            ....  5.000e-05
 Orbital Rotation angle TolX            ....  5.000e-05
 DIIS Error             TolErr          ....  1.000e-06


Diagonalization of the overlap matrix:
Smallest eigenvalue                        ... 5.826e-04
Time for diagonalization                   ...    0.017 sec
Threshold for overlap eigenvalues          ... 1.000e-08
Number of eigenvalues below threshold      ... 0
Time for construction of square roots      ...    0.028 sec
Total time needed                          ...    0.046 sec

-------------------
DFT GRID GENERATION
-------------------

General Integration Accuracy     IntAcc      ...  4.340
Radial Grid Type                 RadialGrid  ... Gauss-Chebyshev
Angular Grid (max. acc.)         AngularGrid ... Lebedev-110
Angular grid pruning method      GridPruning ... 3 (G Style)
Weight generation scheme         WeightScheme... Becke
Basis function cutoff            BFCut       ...    1.0000e-10
Integration weight cutoff        WCut        ...    1.0000e-14
Grids for H and He will be reduced by one unit

# of grid points (after initial pruning)     ...  41088 (   0.0 sec)
# of grid points (after weights+screening)   ...  37176 (   0.0 sec)
nearest neighbour list constructed           ...    0.0 sec
Grid point re-assignment to atoms done       ...    0.0 sec
Grid point division into batches done        ...    0.0 sec
Reduced shell lists constructed in    0.1 sec

Total number of grid points                  ...    37176
Total number of batches                      ...      596
Average number of points per batch           ...       62
Average number of grid points per atom       ...     1093
Average number of shells per batch           ...    80.54 (52.30%)
Average number of basis functions per batch  ...   159.56 (49.55%)
Average number of large shells per batch     ...    51.28 (63.67%)
Average number of large basis fcns per batch ...   105.13 (65.88%)
Maximum spatial batch extension              ...   7.60, 15.63, 14.45 au
Average spatial batch extension              ...   0.17,  0.21,  0.21 au

Time for grid setup =    0.221 sec

------------------------------
INITIAL GUESS: MODEL POTENTIAL
------------------------------
Loading Hartree-Fock densities                     ... done
Calculating cut-offs                               ... done
Setting up the integral package                    ... done
Initializing the effective Hamiltonian             ... done
Starting the Coulomb interaction                   ... done (   0.0 sec)
Reading the grid                                   ... done
Mapping shells                                     ... done
Starting the XC term evaluation                    ... done (   0.0 sec)
  promolecular density results
     # of electrons  =    133.994992127
     EX              =   -126.736650667
     EC              =     -4.623083758
     EX+EC           =   -131.359734425
Transforming the Hamiltonian                       ... done (   0.0 sec)
Diagonalizing the Hamiltonian                      ... done (   0.0 sec)
Back transforming the eigenvectors                 ... done (   0.0 sec)
Now organizing SCF variables                       ... done
                      ------------------
                      INITIAL GUESS DONE (   0.4 sec)
                      ------------------
--------------
SCF ITERATIONS
--------------
ITER       Energy         Delta-E        Max-DP      RMS-DP      [F,P]     Damp
               ***  Starting incremental Fock matrix formation  ***
  0  -1339.4300089876   0.000000000000 0.06399961  0.00153579  0.1572318 0.7000
  1  -1339.6071435852  -0.177134597603 0.04312905  0.00114010  0.0955949 0.7000
                               ***Turning on DIIS***
  2  -1339.6959035081  -0.088759922864 0.08940665  0.00222945  0.0500008 0.0000
  3  -1339.8315350778  -0.135631569651 0.04404479  0.00087398  0.0401977 0.0000
  4  -1339.8583571123  -0.026822034576 0.00677168  0.00020290  0.0069478 0.0000
                      *** Initiating the SOSCF procedure ***
                           *** Shutting down DIIS ***
                      *** Re-Reading the Fockian *** 
                      *** Removing any level shift *** 
ITER      Energy       Delta-E        Grad      Rot      Max-DP    RMS-DP
  5  -1339.85926780  -0.0009106871  0.001488  0.001488  0.003790  0.000100
               *** Restarting incremental Fock matrix formation ***
  6  -1339.85945553  -0.0001877284  0.001170  0.003294  0.002858  0.000069
  7  -1339.85952410  -0.0000685678  0.000661  0.004065  0.003729  0.000074
  8  -1339.85954376  -0.0000196604  0.000546  0.001117  0.001029  0.000024
  9  -1339.85954976  -0.0000060004  0.000128  0.000346  0.000350  0.000009
 10  -1339.85955028  -0.0000005203  0.000050  0.000172  0.000148  0.000004
                  ***Gradient check signals convergence***
              ***Rediagonalizing the Fockian in SOSCF/NRSCF***

               *****************************************************
               *                     SUCCESS                       *
               *           SCF CONVERGED AFTER  11 CYCLES          *
               *****************************************************

Setting up the final grid:

General Integration Accuracy     IntAcc      ...  4.670
Radial Grid Type                 RadialGrid  ... Gauss-Chebyshev
Angular Grid (max. acc.)         AngularGrid ... Lebedev-302
Angular grid pruning method      GridPruning ... 3 (G Style)
Weight generation scheme         WeightScheme... Becke
Basis function cutoff            BFCut       ...    1.0000e-10
Integration weight cutoff        WCut        ...    1.0000e-14
Grids for H and He will be reduced by one unit

# of grid points (after initial pruning)     ... 161752 (   0.0 sec)
# of grid points (after weights+screening)   ... 143563 (   0.2 sec)
nearest neighbour list constructed           ...    0.0 sec
Grid point re-assignment to atoms done       ...    0.0 sec
Grid point division into batches done        ...    0.5 sec
Reduced shell lists constructed in    0.7 sec

Total number of grid points                  ...   143563
Total number of batches                      ...     2262
Average number of points per batch           ...       63
Average number of grid points per atom       ...     4222
Average number of shells per batch           ...    74.85 (48.60%)
Average number of basis functions per batch  ...   147.28 (45.74%)
Average number of large shells per batch     ...    46.03 (61.51%)
Average number of large basis fcns per batch ...    93.70 (63.62%)
Maximum spatial batch extension              ...   6.34, 13.09, 15.30 au
Average spatial batch extension              ...   0.10,  0.12,  0.13 au

Final grid set up in    1.0 sec
Final integration                            ... done (   0.4 sec)
Change in XC energy                          ...     0.006789744
Integrated number of electrons               ...   134.000048147
Previous integrated no of electrons          ...   134.000126425

----------------
TOTAL SCF ENERGY
----------------

Total Energy       :        -1339.85276076 Eh          -36459.24717 eV

Components:
Nuclear Repulsion  :         1267.95182363 Eh           34502.72321 eV
Electronic Energy  :        -2607.80458438 Eh          -70961.97038 eV
One Electron Energy:        -4352.53490171 Eh         -118438.49597 eV
Two Electron Energy:         1744.73031733 Eh           47476.52559 eV

Virial components:
Potential Energy   :        -2671.52514170 Eh          -72695.89489 eV
Kinetic Energy     :         1331.67238094 Eh           36236.64772 eV
Virial Ratio       :            2.00614294


DFT components:
N(Alpha)           :       67.000024073714 electrons
N(Beta)            :       67.000024073714 electrons
N(Total)           :      134.000048147427 electrons
E(XC)              :      -94.284983103915 Eh       
DFET-embed. en.    :        0.000000000000 Eh       

---------------
SCF CONVERGENCE
---------------

  Last Energy change         ...   -2.2581e-07  Tolerance :   1.0000e-06
  Last MAX-Density change    ...    2.8725e-05  Tolerance :   1.0000e-05
  Last RMS-Density change    ...    8.4525e-07  Tolerance :   1.0000e-06
  Last Orbital Gradient      ...    8.9642e-06  Tolerance :   5.0000e-05
  Last Orbital Rotation      ...    3.3294e-05  Tolerance :   5.0000e-05

             **** THE GBW FILE WAS UPDATED (config_1228.gbw) ****
             **** DENSITY FILE WAS UPDATED (config_1228.scfp) ****
             **** ENERGY FILE WAS UPDATED (config_1228.en.tmp) ****
             **** THE GBW FILE WAS UPDATED (config_1228.gbw) ****
             **** DENSITY FILE WAS UPDATED (config_1228.scfp) ****
----------------
ORBITAL ENERGIES
----------------

  NO   OCC          E(Eh)            E(eV) 
   0   2.0000     -88.966977     -2420.9145 
   1   2.0000     -88.961794     -2420.7735 
   2   2.0000     -10.327777      -281.0331 
   3   2.0000     -10.322570      -280.8914 
   4   2.0000     -10.313873      -280.6547 
   5   2.0000     -10.305716      -280.4328 
   6   2.0000     -10.303900      -280.3834 
   7   2.0000     -10.302145      -280.3356 
   8   2.0000     -10.296354      -280.1780 
   9   2.0000     -10.295956      -280.1672 
  10   2.0000     -10.294659      -280.1319 
  11   2.0000     -10.286919      -279.9213 
  12   2.0000     -10.284636      -279.8592 
  13   2.0000     -10.283127      -279.8181 
  14   2.0000     -10.281377      -279.7705 
  15   2.0000     -10.279997      -279.7329 
  16   2.0000      -8.081893      -219.9195 
  17   2.0000      -8.076155      -219.7633 
  18   2.0000      -6.040346      -164.3662 
  19   2.0000      -6.036402      -164.2589 
  20   2.0000      -6.034820      -164.2158 
  21   2.0000      -6.032659      -164.1570 
  22   2.0000      -6.030820      -164.1069 
  23   2.0000      -6.026669      -163.9940 
  24   2.0000      -1.009563       -27.4716 
  25   2.0000      -0.982317       -26.7302 
  26   2.0000      -0.918611       -24.9967 
  27   2.0000      -0.905048       -24.6276 
  28   2.0000      -0.874487       -23.7960 
  29   2.0000      -0.851288       -23.1647 
  30   2.0000      -0.838879       -22.8271 
  31   2.0000      -0.813244       -22.1295 
  32   2.0000      -0.783636       -21.3238 
  33   2.0000      -0.771176       -20.9848 
  34   2.0000      -0.714191       -19.4341 
  35   2.0000      -0.701922       -19.1003 
  36   2.0000      -0.689517       -18.7627 
  37   2.0000      -0.668409       -18.1883 
  38   2.0000      -0.637729       -17.3535 
  39   2.0000      -0.613963       -16.7068 
  40   2.0000      -0.596336       -16.2271 
  41   2.0000      -0.576647       -15.6914 
  42   2.0000      -0.565842       -15.3973 
  43   2.0000      -0.564766       -15.3681 
  44   2.0000      -0.529316       -14.4034 
  45   2.0000      -0.524372       -14.2689 
  46   2.0000      -0.520551       -14.1649 
  47   2.0000      -0.510700       -13.8969 
  48   2.0000      -0.509661       -13.8686 
  49   2.0000      -0.498394       -13.5620 
  50   2.0000      -0.490024       -13.3342 
  51   2.0000      -0.480994       -13.0885 
  52   2.0000      -0.471666       -12.8347 
  53   2.0000      -0.463376       -12.6091 
  54   2.0000      -0.454827       -12.3765 
  55   2.0000      -0.451527       -12.2867 
  56   2.0000      -0.444886       -12.1060 
  57   2.0000      -0.439463       -11.9584 
  58   2.0000      -0.432483       -11.7685 
  59   2.0000      -0.426631       -11.6092 
  60   2.0000      -0.417983       -11.3739 
  61   2.0000      -0.414082       -11.2677 
  62   2.0000      -0.411095       -11.1865 
  63   2.0000      -0.351214        -9.5570 
  64   2.0000      -0.331209        -9.0127 
  65   2.0000      -0.325083        -8.8460 
  66   2.0000      -0.286022        -7.7831 
  67   0.0000       0.030112         0.8194 
  68   0.0000       0.072559         1.9744 
  69   0.0000       0.098812         2.6888 
  70   0.0000       0.119156         3.2424 
  71   0.0000       0.133685         3.6378 
  72   0.0000       0.142318         3.8727 
  73   0.0000       0.151367         4.1189 
  74   0.0000       0.158547         4.3143 
  75   0.0000       0.165695         4.5088 
  76   0.0000       0.173059         4.7092 
  77   0.0000       0.183639         4.9971 
  78   0.0000       0.190755         5.1907 
  79   0.0000       0.194894         5.3033 
  80   0.0000       0.202886         5.5208 
  81   0.0000       0.204134         5.5548 
  82   0.0000       0.210973         5.7409 
  83   0.0000       0.220973         6.0130 
  84   0.0000       0.223719         6.0877 
  85   0.0000       0.228207         6.2098 
  86   0.0000       0.236172         6.4266 
  87   0.0000       0.240527         6.5451 
  88   0.0000       0.248917         6.7734 
  89   0.0000       0.249830         6.7982 
  90   0.0000       0.259734         7.0677 
  91   0.0000       0.271074         7.3763 
  92   0.0000       0.276188         7.5155 
  93   0.0000       0.296658         8.0725 
  94   0.0000       0.310428         8.4472 
  95   0.0000       0.320304         8.7159 
  96   0.0000       0.327025         8.8988 
  97   0.0000       0.336148         9.1471 
  98   0.0000       0.337216         9.1761 
  99   0.0000       0.366554         9.9744 
 100   0.0000       0.380647        10.3579 
 101   0.0000       0.392235        10.6733 
 102   0.0000       0.407127        11.0785 
 103   0.0000       0.419206        11.4072 
 104   0.0000       0.432491        11.7687 
 105   0.0000       0.448694        12.2096 
 106   0.0000       0.467278        12.7153 
 107   0.0000       0.485389        13.2081 
 108   0.0000       0.491886        13.3849 
 109   0.0000       0.500977        13.6323 
 110   0.0000       0.508912        13.8482 
 111   0.0000       0.512593        13.9484 
 112   0.0000       0.515538        14.0285 
 113   0.0000       0.525673        14.3043 
 114   0.0000       0.533660        14.5216 
 115   0.0000       0.541902        14.7459 
 116   0.0000       0.551617        15.0103 
 117   0.0000       0.557012        15.1571 
 118   0.0000       0.567276        15.4364 
 119   0.0000       0.569896        15.5077 
 120   0.0000       0.585328        15.9276 
 121   0.0000       0.588963        16.0265 
 122   0.0000       0.602297        16.3893 
 123   0.0000       0.604945        16.4614 
 124   0.0000       0.613999        16.7078 
 125   0.0000       0.621701        16.9174 
 126   0.0000       0.632637        17.2149 
 127   0.0000       0.643882        17.5209 
 128   0.0000       0.652759        17.7625 
 129   0.0000       0.657139        17.8817 
 130   0.0000       0.664024        18.0690 
 131   0.0000       0.673102        18.3160 
 132   0.0000       0.679295        18.4846 
 133   0.0000       0.696111        18.9422 
 134   0.0000       0.703333        19.1387 
 135   0.0000       0.710599        19.3364 
 136   0.0000       0.716129        19.4869 
 137   0.0000       0.722088        19.6490 
 138   0.0000       0.728008        19.8101 
 139   0.0000       0.736967        20.0539 
 140   0.0000       0.747056        20.3284 
 141   0.0000       0.751322        20.4445 
 142   0.0000       0.756960        20.5979 
 143   0.0000       0.762862        20.7585 
 144   0.0000       0.769502        20.9392 
 145   0.0000       0.772413        21.0184 
 146   0.0000       0.774283        21.0693 
 147   0.0000       0.778671        21.1887 
 148   0.0000       0.782007        21.2795 
 149   0.0000       0.783700        21.3256 
 150   0.0000       0.790931        21.5223 
 151   0.0000       0.793591        21.5947 
 152   0.0000       0.796896        21.6846 
 153   0.0000       0.798988        21.7416 
 154   0.0000       0.800210        21.7748 
 155   0.0000       0.808025        21.9875 
 156   0.0000       0.809869        22.0377 
 157   0.0000       0.815676        22.1957 
 158   0.0000       0.820767        22.3342 
 159   0.0000       0.821652        22.3583 
 160   0.0000       0.827280        22.5114 
 161   0.0000       0.832643        22.6574 
 162   0.0000       0.837567        22.7914 
 163   0.0000       0.841185        22.8898 
 164   0.0000       0.854455        23.2509 
 165   0.0000       0.860739        23.4219 
 166   0.0000       0.868849        23.6426 
 167   0.0000       0.876998        23.8643 
 168   0.0000       0.881824        23.9957 
 169   0.0000       0.899572        24.4786 
 170   0.0000       0.909221        24.7412 
 171   0.0000       0.930069        25.3085 
 172   0.0000       0.948903        25.8210 
 173   0.0000       0.951908        25.9027 
 174   0.0000       0.957255        26.0482 
 175   0.0000       0.968406        26.3517 
 176   0.0000       0.973856        26.5000 
 177   0.0000       0.994575        27.0638 
 178   0.0000       1.004790        27.3417 
 179   0.0000       1.012024        27.5386 
 180   0.0000       1.068583        29.0776 
 181   0.0000       1.071607        29.1599 
 182   0.0000       1.075489        29.2655 
 183   0.0000       1.090413        29.6716 
 184   0.0000       1.108069        30.1521 
 185   0.0000       1.130010        30.7491 
 186   0.0000       1.153649        31.3924 
 187   0.0000       1.171153        31.8687 
 188   0.0000       1.182187        32.1690 
 189   0.0000       1.205947        32.8155 
 190   0.0000       1.234770        33.5998 
 191   0.0000       1.241142        33.7732 
 192   0.0000       1.256575        34.1931 
 193   0.0000       1.268675        34.5224 
 194   0.0000       1.275065        34.6963 
 195   0.0000       1.300791        35.3963 
 196   0.0000       1.318226        35.8708 
 197   0.0000       1.332110        36.2486 
 198   0.0000       1.344058        36.5737 
 199   0.0000       1.370159        37.2839 
 200   0.0000       1.386348        37.7245 
 201   0.0000       1.426450        38.8157 
 202   0.0000       1.434423        39.0326 
 203   0.0000       1.447457        39.3873 
 204   0.0000       1.460329        39.7376 
 205   0.0000       1.471816        40.0502 
 206   0.0000       1.479917        40.2706 
 207   0.0000       1.510218        41.0951 
 208   0.0000       1.552072        42.2340 
 209   0.0000       1.562514        42.5182 
 210   0.0000       1.570556        42.7370 
 211   0.0000       1.604539        43.6617 
 212   0.0000       1.608670        43.7741 
 213   0.0000       1.625087        44.2209 
 214   0.0000       1.630802        44.3764 
 215   0.0000       1.637514        44.5590 
 216   0.0000       1.665758        45.3276 
 217   0.0000       1.700472        46.2722 
 218   0.0000       1.748589        47.5815 
 219   0.0000       1.765137        48.0318 
 220   0.0000       1.780982        48.4630 
 221   0.0000       1.794636        48.8345 
 222   0.0000       1.797737        48.9189 
 223   0.0000       1.817238        49.4496 
 224   0.0000       1.822910        49.6039 
 225   0.0000       1.834578        49.9214 
 226   0.0000       1.840104        50.0718 
 227   0.0000       1.852977        50.4221 
 228   0.0000       1.853571        50.4382 
 229   0.0000       1.855780        50.4983 
 230   0.0000       1.864658        50.7399 
 231   0.0000       1.880825        51.1798 
 232   0.0000       1.886542        51.3354 
 233   0.0000       1.895850        51.5887 
 234   0.0000       1.896808        51.6148 
 235   0.0000       1.906807        51.8868 
 236   0.0000       1.913031        52.0562 
 237   0.0000       1.914219        52.0886 
 238   0.0000       1.924707        52.3739 
 239   0.0000       1.934824        52.6492 
 240   0.0000       1.950674        53.0805 
 241   0.0000       1.958191        53.2851 
 242   0.0000       1.977221        53.8029 
 243   0.0000       1.978407        53.8352 
 244   0.0000       1.990631        54.1678 
 245   0.0000       1.995127        54.2902 
 246   0.0000       2.005748        54.5792 
 247   0.0000       2.010313        54.7034 
 248   0.0000       2.023669        55.0668 
 249   0.0000       2.041170        55.5430 
 250   0.0000       2.045551        55.6623 
 251   0.0000       2.058625        56.0180 
 252   0.0000       2.072502        56.3957 
 253   0.0000       2.083801        56.7031 
 254   0.0000       2.092243        56.9328 
 255   0.0000       2.107324        57.3432 
 256   0.0000       2.122543        57.7573 
 257   0.0000       2.143956        58.3400 
 258   0.0000       2.149344        58.4866 
 259   0.0000       2.165293        58.9206 
 260   0.0000       2.177184        59.2442 
 261   0.0000       2.185614        59.4736 
 262   0.0000       2.202546        59.9343 
 263   0.0000       2.208183        60.0877 
 264   0.0000       2.238824        60.9215 
 265   0.0000       2.245253        61.0964 
 266   0.0000       2.252989        61.3069 
 267   0.0000       2.261256        61.5319 
 268   0.0000       2.285895        62.2024 
 269   0.0000       2.307483        62.7898 
 270   0.0000       2.309707        62.8503 
 271   0.0000       2.338524        63.6345 
 272   0.0000       2.390885        65.0593 
 273   0.0000       2.398174        65.2576 
 274   0.0000       2.413259        65.6681 
 275   0.0000       2.422059        65.9076 
 276   0.0000       2.457968        66.8847 
 277   0.0000       2.471562        67.2546 
 278   0.0000       2.479976        67.4836 
 279   0.0000       2.482723        67.5583 
 280   0.0000       2.493726        67.8577 
 281   0.0000       2.503608        68.1266 
 282   0.0000       2.517451        68.5033 
 283   0.0000       2.525757        68.7293 
 284   0.0000       2.539230        69.0960 
 285   0.0000       2.556942        69.5779 
 286   0.0000       2.578232        70.1573 
 287   0.0000       2.599568        70.7378 
 288   0.0000       2.601541        70.7915 
 289   0.0000       2.617390        71.2228 
 290   0.0000       2.641346        71.8747 
 291   0.0000       2.660223        72.3883 
 292   0.0000       2.674860        72.7866 
 293   0.0000       2.698641        73.4337 
 294   0.0000       2.709445        73.7278 
 295   0.0000       2.723513        74.1106 
 296   0.0000       2.753127        74.9164 
 297   0.0000       2.767733        75.3138 
 298   0.0000       2.788098        75.8680 
 299   0.0000       2.796568        76.0985 
 300   0.0000       2.867277        78.0226 
 301   0.0000       2.885129        78.5084 
 302   0.0000       2.912518        79.2536 
 303   0.0000       2.932478        79.7968 
 304   0.0000       2.952899        80.3525 
 305   0.0000       2.985690        81.2447 
 306   0.0000       3.009096        81.8817 
 307   0.0000       3.011907        81.9582 
 308   0.0000       3.020946        82.2041 
 309   0.0000       3.032143        82.5088 
 310   0.0000       3.045060        82.8603 
 311   0.0000       3.078144        83.7606 
 312   0.0000       3.102472        84.4226 
 313   0.0000       3.138552        85.4043 
 314   0.0000       3.159139        85.9645 
 315   0.0000       3.161066        86.0170 
 316   0.0000       3.170526        86.2744 
 317   0.0000       3.201724        87.1233 
 318   0.0000       3.234033        88.0025 
 319   0.0000       3.285025        89.3901 
 320   0.0000       3.397189        92.4422 
 321   0.0000       3.442041        93.6627 

                    ********************************
                    * MULLIKEN POPULATION ANALYSIS *
                    ********************************

-----------------------
MULLIKEN ATOMIC CHARGES
-----------------------
   0 S :    0.093533
   1 C :   -0.089695
   2 C :   -0.082823
   3 C :   -0.021895
   4 C :   -0.119718
   5 H :    0.022962
   6 C :    0.144110
   7 H :   -0.000487
   8 H :    0.037246
   9 C :   -0.151963
  10 H :    0.042792
  11 H :    0.031394
  12 C :   -0.036170
  13 H :    0.042650
  14 H :    0.032680
  15 H :    0.037320
  16 S :    0.113031
  17 C :   -0.073566
  18 C :   -0.049323
  19 C :   -0.031108
  20 C :   -0.142921
  21 H :    0.035000
  22 C :    0.024825
  23 H :    0.046059
  24 H :    0.035261
  25 C :   -0.074507
  26 H :    0.030038
  27 H :    0.031383
  28 C :   -0.073107
  29 H :    0.038500
  30 H :    0.024571
  31 H :    0.047128
  32 H :   -0.003180
  33 H :    0.039981
Sum of atomic charges:   -0.0000000

--------------------------------
MULLIKEN REDUCED ORBITAL CHARGES
--------------------------------
  0 S s       :     5.847273  s :     5.847273
      pz      :     3.388684  p :     9.956862
      px      :     3.036821
      py      :     3.531357
      dz2     :     0.021829  d :     0.102332
      dxz     :     0.019655
      dyz     :     0.017152
      dx2y2   :     0.017710
      dxy     :     0.025985
  1 C s       :     3.179958  s :     3.179958
      pz      :     1.025370  p :     2.875843
      px      :     0.811850
      py      :     1.038623
      dz2     :     0.005670  d :     0.033894
      dxz     :     0.007248
      dyz     :     0.004389
      dx2y2   :     0.008671
      dxy     :     0.007915
  2 C s       :     3.068339  s :     3.068339
      pz      :     0.981141  p :     2.970178
      px      :     1.023604
      py      :     0.965434
      dz2     :     0.008377  d :     0.044306
      dxz     :     0.007853
      dyz     :     0.006964
      dx2y2   :     0.011824
      dxy     :     0.009288
  3 C s       :     3.225541  s :     3.225541
      pz      :     0.911831  p :     2.763758
      px      :     0.911032
      py      :     0.940895
      dz2     :     0.004774  d :     0.032596
      dxz     :     0.007749
      dyz     :     0.004605
      dx2y2   :     0.007569
      dxy     :     0.007899
  4 C s       :     3.041693  s :     3.041693
      pz      :     0.999552  p :     3.031193
      px      :     1.032349
      py      :     0.999291
      dz2     :     0.009101  d :     0.046833
      dxz     :     0.008783
      dyz     :     0.007859
      dx2y2   :     0.010252
      dxy     :     0.010839
  5 H s       :     0.953207  s :     0.953207
      pz      :     0.011404  p :     0.023831
      px      :     0.004241
      py      :     0.008186
  6 C s       :     2.891312  s :     2.891312
      pz      :     0.986354  p :     2.927268
      px      :     0.963129
      py      :     0.977785
      dz2     :     0.007947  d :     0.037310
      dxz     :     0.006456
      dyz     :     0.009216
      dx2y2   :     0.006393
      dxy     :     0.007299
  7 H s       :     0.976014  s :     0.976014
      pz      :     0.005832  p :     0.024472
      px      :     0.011852
      py      :     0.006789
  8 H s       :     0.938465  s :     0.938465
      pz      :     0.007531  p :     0.024289
      px      :     0.004752
      py      :     0.012006
  9 C s       :     3.098877  s :     3.098877
      pz      :     0.981863  p :     3.015765
      px      :     0.997315
      py      :     1.036588
      dz2     :     0.009322  d :     0.037320
      dxz     :     0.006636
      dyz     :     0.007877
      dx2y2   :     0.004374
      dxy     :     0.009112
 10 H s       :     0.935717  s :     0.935717
      pz      :     0.006963  p :     0.021491
      px      :     0.005024
      py      :     0.009504
 11 H s       :     0.946536  s :     0.946536
      pz      :     0.004456  p :     0.022070
      px      :     0.006935
      py      :     0.010679
 12 C s       :     3.012950  s :     3.012950
      pz      :     1.029133  p :     2.995661
      px      :     0.958277
      py      :     1.008251
      dz2     :     0.005404  d :     0.027558
      dxz     :     0.003958
      dyz     :     0.005812
      dx2y2   :     0.005076
      dxy     :     0.007308
 13 H s       :     0.933220  s :     0.933220
      pz      :     0.004963  p :     0.024130
      px      :     0.006772
      py      :     0.012395
 14 H s       :     0.942462  s :     0.942462
      pz      :     0.012151  p :     0.024858
      px      :     0.005239
      py      :     0.007468
 15 H s       :     0.940531  s :     0.940531
      pz      :     0.008423  p :     0.022149
      px      :     0.005922
      py      :     0.007804
 16 S s       :     5.841746  s :     5.841746
      pz      :     3.103208  p :     9.933155
      px      :     3.214498
      py      :     3.615448
      dz2     :     0.038469  d :     0.112069
      dxz     :     0.017844
      dyz     :     0.017361
      dx2y2   :     0.020916
      dxy     :     0.017479
 17 C s       :     3.133107  s :     3.133107
      pz      :     0.977631  p :     2.905160
      px      :     0.869550
      py      :     1.057978
      dz2     :     0.009459  d :     0.035300
      dxz     :     0.008663
      dyz     :     0.005072
      dx2y2   :     0.005766
      dxy     :     0.006339
 18 C s       :     3.189591  s :     3.189591
      pz      :     0.940630  p :     2.825486
      px      :     0.866540
      py      :     1.018315
      dz2     :     0.008591  d :     0.034247
      dxz     :     0.011139
      dyz     :     0.006672
      dx2y2   :     0.003810
      dxy     :     0.004034
 19 C s       :     3.053850  s :     3.053850
      pz      :     0.975145  p :     2.933414
      px      :     0.965822
      py      :     0.992447
      dz2     :     0.010491  d :     0.043844
      dxz     :     0.012584
      dyz     :     0.007575
      dx2y2   :     0.006208
      dxy     :     0.006985
 20 C s       :     3.040992  s :     3.040992
      pz      :     0.888681  p :     3.057046
      px      :     1.026991
      py      :     1.141373
      dz2     :     0.013103  d :     0.044883
      dxz     :     0.009930
      dyz     :     0.006133
      dx2y2   :     0.008086
      dxy     :     0.007631
 21 H s       :     0.942297  s :     0.942297
      pz      :     0.002978  p :     0.022704
      px      :     0.013977
      py      :     0.005749
 22 C s       :     2.986156  s :     2.986156
      pz      :     0.962232  p :     2.954237
      px      :     0.969474
      py      :     1.022530
      dz2     :     0.008315  d :     0.034782
      dxz     :     0.008107
      dyz     :     0.004504
      dx2y2   :     0.009257
      dxy     :     0.004600
 23 H s       :     0.934382  s :     0.934382
      pz      :     0.006249  p :     0.019559
      px      :     0.007543
      py      :     0.005767
 24 H s       :     0.940658  s :     0.940658
      pz      :     0.005119  p :     0.024082
      px      :     0.004777
      py      :     0.014186
 25 C s       :     3.052265  s :     3.052265
      pz      :     0.990960  p :     2.986507
      px      :     0.964663
      py      :     1.030884
      dz2     :     0.007420  d :     0.035735
      dxz     :     0.010047
      dyz     :     0.003505
      dx2y2   :     0.010695
      dxy     :     0.004067
 26 H s       :     0.946322  s :     0.946322
      pz      :     0.008051  p :     0.023640
      px      :     0.009811
      py      :     0.005778
 27 H s       :     0.945123  s :     0.945123
      pz      :     0.004523  p :     0.023494
      px      :     0.004515
      py      :     0.014457
 28 C s       :     3.043553  s :     3.043553
      pz      :     0.976792  p :     3.002660
      px      :     1.023043
      py      :     1.002824
      dz2     :     0.005604  d :     0.026894
      dxz     :     0.006850
      dyz     :     0.004378
      dx2y2   :     0.005383
      dxy     :     0.004679
 29 H s       :     0.938279  s :     0.938279
      pz      :     0.005279  p :     0.023221
      px      :     0.010188
      py      :     0.007755
 30 H s       :     0.951605  s :     0.951605
      pz      :     0.007601  p :     0.023824
      px      :     0.010477
      py      :     0.005746
 31 H s       :     0.929417  s :     0.929417
      pz      :     0.004161  p :     0.023455
      px      :     0.005339
      py      :     0.013955
 32 H s       :     0.975487  s :     0.975487
      pz      :     0.009246  p :     0.027692
      px      :     0.012100
      py      :     0.006347
 33 H s       :     0.935222  s :     0.935222
      pz      :     0.012824  p :     0.024797
      px      :     0.005694
      py      :     0.006279


                     *******************************
                     * LOEWDIN POPULATION ANALYSIS *
                     *******************************

----------------------
LOEWDIN ATOMIC CHARGES
----------------------
   0 S :    0.386587
   1 C :   -0.162584
   2 C :   -0.048649
   3 C :   -0.081680
   4 C :   -0.197126
   5 H :    0.027893
   6 C :   -0.029019
   7 H :    0.021906
   8 H :    0.037988
   9 C :   -0.047034
  10 H :    0.026797
  11 H :    0.022210
  12 C :   -0.059880
  13 H :    0.025679
  14 H :    0.024080
  15 H :    0.029627
  16 S :    0.431058
  17 C :   -0.182375
  18 C :   -0.074028
  19 C :   -0.057035
  20 C :   -0.202098
  21 H :    0.039080
  22 C :   -0.042046
  23 H :    0.038278
  24 H :    0.029783
  25 C :   -0.035173
  26 H :    0.016500
  27 H :    0.025875
  28 C :   -0.068043
  29 H :    0.030983
  30 H :    0.025157
  31 H :    0.024694
  32 H :    0.001470
  33 H :    0.021127

-------------------------------
LOEWDIN REDUCED ORBITAL CHARGES
-------------------------------
  0 S s       :     5.514213  s :     5.514213
      pz      :     3.401217  p :     9.972891
      px      :     3.038624
      py      :     3.533050
      dz2     :     0.026431  d :     0.126310
      dxz     :     0.024411
      dyz     :     0.021057
      dx2y2   :     0.022316
      dxy     :     0.032094
  1 C s       :     2.909837  s :     2.909837
      pz      :     1.088109  p :     3.170476
      px      :     0.992126
      py      :     1.090240
      dz2     :     0.011674  d :     0.082271
      dxz     :     0.017826
      dyz     :     0.012264
      dx2y2   :     0.020921
      dxy     :     0.019586
  2 C s       :     2.861085  s :     2.861085
      pz      :     1.014889  p :     3.078438
      px      :     1.030066
      py      :     1.033482
      dz2     :     0.017775  d :     0.109127
      dxz     :     0.019753
      dyz     :     0.018576
      dx2y2   :     0.029735
      dxy     :     0.023287
  3 C s       :     2.874506  s :     2.874506
      pz      :     1.047371  p :     3.121252
      px      :     1.032862
      py      :     1.041019
      dz2     :     0.011814  d :     0.085922
      dxz     :     0.020471
      dyz     :     0.012347
      dx2y2   :     0.019766
      dxy     :     0.021523
  4 C s       :     2.900297  s :     2.900297
      pz      :     1.044557  p :     3.184191
      px      :     1.068901
      py      :     1.070734
      dz2     :     0.020893  d :     0.112637
      dxz     :     0.023180
      dyz     :     0.018678
      dx2y2   :     0.023138
      dxy     :     0.026749
  5 H s       :     0.901139  s :     0.901139
      pz      :     0.032847  p :     0.070968
      px      :     0.013792
      py      :     0.024329
  6 C s       :     2.805897  s :     2.805897
      pz      :     1.046867  p :     3.127271
      px      :     1.036981
      py      :     1.043423
      dz2     :     0.022253  d :     0.095852
      dxz     :     0.015206
      dyz     :     0.021738
      dx2y2   :     0.015747
      dxy     :     0.020908
  7 H s       :     0.905537  s :     0.905537
      pz      :     0.019224  p :     0.072557
      px      :     0.033871
      py      :     0.019462
  8 H s       :     0.892198  s :     0.892198
      pz      :     0.021874  p :     0.069814
      px      :     0.013926
      py      :     0.034014
  9 C s       :     2.838373  s :     2.838373
      pz      :     1.028065  p :     3.119230
      px      :     1.025718
      py      :     1.065447
      dz2     :     0.023485  d :     0.089432
      dxz     :     0.014318
      dyz     :     0.019119
      dx2y2   :     0.011346
      dxy     :     0.021163
 10 H s       :     0.909551  s :     0.909551
      pz      :     0.021437  p :     0.063652
      px      :     0.016179
      py      :     0.026035
 11 H s       :     0.912049  s :     0.912049
      pz      :     0.013748  p :     0.065741
      px      :     0.022334
      py      :     0.029659
 12 C s       :     2.835584  s :     2.835584
      pz      :     1.070420  p :     3.154253
      px      :     1.021932
      py      :     1.061901
      dz2     :     0.013359  d :     0.070043
      dxz     :     0.009853
      dyz     :     0.015478
      dx2y2   :     0.013655
      dxy     :     0.017698
 13 H s       :     0.904804  s :     0.904804
      pz      :     0.013698  p :     0.069516
      px      :     0.020456
      py      :     0.035363
 14 H s       :     0.904205  s :     0.904205
      pz      :     0.035109  p :     0.071715
      px      :     0.016071
      py      :     0.020535
 15 H s       :     0.910448  s :     0.910448
      pz      :     0.022430  p :     0.059924
      px      :     0.017370
      py      :     0.020124
 16 S s       :     5.499870  s :     5.499870
      pz      :     3.124327  p :     9.930968
      px      :     3.230255
      py      :     3.576386
      dz2     :     0.050512  d :     0.138105
      dxz     :     0.020173
      dyz     :     0.020828
      dx2y2   :     0.026175
      dxy     :     0.020417
 17 C s       :     2.924923  s :     2.924923
      pz      :     1.090944  p :     3.173948
      px      :     1.018179
      py      :     1.064826
      dz2     :     0.024482  d :     0.083504
      dxz     :     0.023737
      dyz     :     0.009777
      dx2y2   :     0.012529
      dxy     :     0.012978
 18 C s       :     2.873307  s :     2.873307
      pz      :     1.051895  p :     3.112220
      px      :     1.043334
      py      :     1.016990
      dz2     :     0.024275  d :     0.088501
      dxz     :     0.033518
      dyz     :     0.014401
      dx2y2   :     0.008862
      dxy     :     0.007445
 19 C s       :     2.857767  s :     2.857767
      pz      :     1.049530  p :     3.089815
      px      :     1.050690
      py      :     0.989595
      dz2     :     0.027755  d :     0.109454
      dxz     :     0.036450
      dyz     :     0.014303
      dx2y2   :     0.015148
      dxy     :     0.015797
 20 C s       :     2.895422  s :     2.895422
      pz      :     1.000284  p :     3.197220
      px      :     1.084474
      py      :     1.112461
      dz2     :     0.032733  d :     0.109456
      dxz     :     0.027320
      dyz     :     0.012769
      dx2y2   :     0.019493
      dxy     :     0.017141
 21 H s       :     0.894212  s :     0.894212
      pz      :     0.010411  p :     0.066707
      px      :     0.039265
      py      :     0.017032
 22 C s       :     2.840370  s :     2.840370
      pz      :     1.017473  p :     3.115166
      px      :     1.028616
      py      :     1.069077
      dz2     :     0.021698  d :     0.086510
      dxz     :     0.020584
      dyz     :     0.010711
      dx2y2   :     0.022620
      dxy     :     0.010898
 23 H s       :     0.907644  s :     0.907644
      pz      :     0.017767  p :     0.054078
      px      :     0.021835
      py      :     0.014476
 24 H s       :     0.897281  s :     0.897281
      pz      :     0.016084  p :     0.072936
      px      :     0.015063
      py      :     0.041788
 25 C s       :     2.832031  s :     2.832031
      pz      :     1.026646  p :     3.117549
      px      :     1.024166
      py      :     1.066737
      dz2     :     0.017913  d :     0.085593
      dxz     :     0.023896
      dyz     :     0.008116
      dx2y2   :     0.026481
      dxy     :     0.009186
 26 H s       :     0.910847  s :     0.910847
      pz      :     0.025544  p :     0.072653
      px      :     0.030418
      py      :     0.016690
 27 H s       :     0.903649  s :     0.903649
      pz      :     0.014883  p :     0.070476
      px      :     0.014084
      py      :     0.041510
 28 C s       :     2.848176  s :     2.848176
      pz      :     1.021802  p :     3.153510
      px      :     1.071801
      py      :     1.059908
      dz2     :     0.014658  d :     0.066357
      dxz     :     0.016323
      dyz     :     0.009710
      dx2y2   :     0.013769
      dxy     :     0.011897
 29 H s       :     0.903434  s :     0.903434
      pz      :     0.015906  p :     0.065583
      px      :     0.027539
      py      :     0.022138
 30 H s       :     0.908358  s :     0.908358
      pz      :     0.023436  p :     0.066485
      px      :     0.028619
      py      :     0.014429
 31 H s       :     0.907755  s :     0.907755
      pz      :     0.014049  p :     0.067551
      px      :     0.013726
      py      :     0.039776
 32 H s       :     0.908160  s :     0.908160
      pz      :     0.029158  p :     0.090370
      px      :     0.039388
      py      :     0.021824
 33 H s       :     0.900449  s :     0.900449
      pz      :     0.036706  p :     0.078423
      px      :     0.021082
      py      :     0.020635


                      *****************************
                      * MAYER POPULATION ANALYSIS *
                      *****************************

  NA   - Mulliken gross atomic population
  ZA   - Total nuclear charge
  QA   - Mulliken gross atomic charge
  VA   - Mayer's total valence
  BVA  - Mayer's bonded valence
  FA   - Mayer's free valence

  ATOM       NA         ZA         QA         VA         BVA        FA
  0 S     15.9065    16.0000     0.0935     2.4415     2.4415    -0.0000
  1 C      6.0897     6.0000    -0.0897     3.8656     3.8656    -0.0000
  2 C      6.0828     6.0000    -0.0828     4.0017     4.0017     0.0000
  3 C      6.0219     6.0000    -0.0219     3.9024     3.9024    -0.0000
  4 C      6.1197     6.0000    -0.1197     3.8878     3.8878    -0.0000
  5 H      0.9770     1.0000     0.0230     1.0088     1.0088    -0.0000
  6 C      5.8559     6.0000     0.1441     3.9260     3.9260    -0.0000
  7 H      1.0005     1.0000    -0.0005     1.0011     1.0011    -0.0000
  8 H      0.9628     1.0000     0.0372     0.9829     0.9829    -0.0000
  9 C      6.1520     6.0000    -0.1520     4.0836     4.0836    -0.0000
 10 H      0.9572     1.0000     0.0428     0.9798     0.9798     0.0000
 11 H      0.9686     1.0000     0.0314     0.9707     0.9707    -0.0000
 12 C      6.0362     6.0000    -0.0362     4.0035     4.0035    -0.0000
 13 H      0.9574     1.0000     0.0426     0.9867     0.9867    -0.0000
 14 H      0.9673     1.0000     0.0327     0.9881     0.9881    -0.0000
 15 H      0.9627     1.0000     0.0373     0.9865     0.9865    -0.0000
 16 S     15.8870    16.0000     0.1130     2.5031     2.5031    -0.0000
 17 C      6.0736     6.0000    -0.0736     3.8580     3.8580    -0.0000
 18 C      6.0493     6.0000    -0.0493     3.9557     3.9557    -0.0000
 19 C      6.0311     6.0000    -0.0311     4.0053     4.0053     0.0000
 20 C      6.1429     6.0000    -0.1429     3.9301     3.9301    -0.0000
 21 H      0.9650     1.0000     0.0350     0.9942     0.9942     0.0000
 22 C      5.9752     6.0000     0.0248     3.9649     3.9649     0.0000
 23 H      0.9539     1.0000     0.0461     0.9919     0.9919     0.0000
 24 H      0.9647     1.0000     0.0353     0.9848     0.9848    -0.0000
 25 C      6.0745     6.0000    -0.0745     4.0811     4.0811    -0.0000
 26 H      0.9700     1.0000     0.0300     0.9826     0.9826     0.0000
 27 H      0.9686     1.0000     0.0314     0.9740     0.9740     0.0000
 28 C      6.0731     6.0000    -0.0731     4.0045     4.0045    -0.0000
 29 H      0.9615     1.0000     0.0385     0.9854     0.9854    -0.0000
 30 H      0.9754     1.0000     0.0246     0.9892     0.9892     0.0000
 31 H      0.9529     1.0000     0.0471     0.9884     0.9884     0.0000
 32 H      1.0032     1.0000    -0.0032     1.0157     1.0157    -0.0000
 33 H      0.9600     1.0000     0.0400     0.9992     0.9992     0.0000

  Mayer bond orders larger than 0.100000
B(  0-S ,  1-C ) :   1.1098 B(  0-S ,  4-C ) :   1.1335 B(  1-C ,  2-C ) :   1.6454 
B(  1-C , 32-H ) :   0.9858 B(  2-C ,  3-C ) :   1.1812 B(  2-C ,  6-C ) :   1.0362 
B(  3-C ,  4-C ) :   1.5690 B(  3-C ,  5-H ) :   0.9926 B(  4-C , 20-C ) :   1.0626 
B(  6-C ,  7-H ) :   0.9430 B(  6-C ,  8-H ) :   0.9222 B(  6-C ,  9-C ) :   1.0494 
B(  9-C , 10-H ) :   0.9668 B(  9-C , 11-H ) :   0.9507 B(  9-C , 12-C ) :   1.0741 
B( 12-C , 13-H ) :   0.9774 B( 12-C , 14-H ) :   0.9742 B( 12-C , 15-H ) :   0.9752 
B( 16-S , 17-C ) :   1.1691 B( 16-S , 20-C ) :   1.1316 B( 17-C , 18-C ) :   1.6034 
B( 17-C , 33-H ) :   0.9674 B( 18-C , 19-C ) :   1.2439 B( 18-C , 21-H ) :   0.9835 
B( 19-C , 20-C ) :   1.5823 B( 19-C , 22-C ) :   1.0345 B( 22-C , 23-H ) :   0.9360 
B( 22-C , 24-H ) :   0.9316 B( 22-C , 25-C ) :   1.0648 B( 25-C , 26-H ) :   0.9562 
B( 25-C , 27-H ) :   0.9569 B( 25-C , 28-C ) :   1.0766 B( 28-C , 29-H ) :   0.9756 
B( 28-C , 30-H ) :   0.9750 B( 28-C , 31-H ) :   0.9784 

-------
TIMINGS
-------

Total SCF time: 0 days 0 hours 0 min 31 sec 

Total time                  ....      31.379 sec
Sum of individual times     ....      30.229 sec  ( 96.3%)

Fock matrix formation       ....      28.183 sec  ( 89.8%)
  XC integration            ....       1.758 sec  (  6.2% of F)
    Basis function eval.    ....       0.218 sec  ( 12.4% of XC)
    Density eval.           ....       0.153 sec  (  8.7% of XC)
    XC-Functional eval.     ....       0.198 sec  ( 11.2% of XC)
    XC-Potential eval.      ....       0.188 sec  ( 10.7% of XC)
Diagonalization             ....       0.155 sec  (  0.5%)
Density matrix formation    ....       0.022 sec  (  0.1%)
Population analysis         ....       0.074 sec  (  0.2%)
Initial guess               ....       0.200 sec  (  0.6%)
Orbital Transformation      ....       0.000 sec  (  0.0%)
Orbital Orthonormalization  ....       0.000 sec  (  0.0%)
DIIS solution               ....       0.197 sec  (  0.6%)
SOSCF solution              ....       0.128 sec  (  0.4%)
Grid generation             ....       1.270 sec  (  4.0%)


-------------------------------------------------------------------------------
                          DFT DISPERSION CORRECTION                            
                                                                               
                              DFTD3 V3.1  Rev 1                                
                              USING zero damping                               
-------------------------------------------------------------------------------
The omegaB97X-D3 functional is recognized. Fit by Chai et al.
Active option DFTDOPT                   ...         3   

molecular C6(AA) [au] = 14168.505494 


            DFT-D V3
 parameters
 s6 scaling factor         :     1.0000 
 rs6 scaling factor        :     1.2810 
 s8 scaling factor         :     1.0000 
 rs8 scaling factor        :     1.0940 
 Damping factor alpha6     :    14.0000 
 Damping factor alpha8     :    16.0000 
 ad hoc parameters k1-k3   :    16.0000     1.3333    -4.0000 

 Edisp/kcal,au: -8.386925825607  -0.013365415627 
 E6   /kcal   :  -3.627826129 
 E8   /kcal   :  -4.759099696 
 % E8         :  56.744268343 

-------------------------   ----------------
Dispersion correction           -0.013365416
-------------------------   ----------------


-------------------------   --------------------
FINAL SINGLE POINT ENERGY     -1339.866126173739
-------------------------   --------------------


                            ***************************************
                            *     ORCA property calculations      *
                            ***************************************

                                    ---------------------
                                    Active property flags
                                    ---------------------
   (+) Dipole Moment


------------------------------------------------------------------------------
                       ORCA ELECTRIC PROPERTIES CALCULATION
------------------------------------------------------------------------------

Dipole Moment Calculation                       ... on
Quadrupole Moment Calculation                   ... off
Polarizability Calculation                      ... off
GBWName                                         ... config_1228.gbw
Electron density file                           ... config_1228.scfp
The origin for moment calculation is the CENTER OF MASS  = (20.866126, 45.402256 77.939887)

-------------
DIPOLE MOMENT
-------------
                                X             Y             Z
Electronic contribution:      1.52807      -8.91030       6.29488
Nuclear contribution   :     -1.49565       9.09219      -6.29175
                        -----------------------------------------
Total Dipole Moment    :      0.03243       0.18190       0.00313
                        -----------------------------------------
Magnitude (a.u.)       :      0.18479
Magnitude (Debye)      :      0.46970



--------------------
Rotational spectrum 
--------------------
 
Rotational constants in cm-1:     0.023877     0.007116     0.005908 
Rotational constants in MHz :   715.809905   213.319626   177.112771 

 Dipole components along the rotational axes: 
x,y,z [a.u.] :     0.028658     0.013758    -0.182038 
x,y,z [Debye]:     0.072842     0.034969    -0.462703 

 

Timings for individual modules:

Sum of individual times         ...       32.536 sec (=   0.542 min)
GTO integral calculation        ...        0.780 sec (=   0.013 min)   2.4 %
SCF iterations                  ...       31.756 sec (=   0.529 min)  97.6 %
                             ****ORCA TERMINATED NORMALLY****
TOTAL RUN TIME: 0 days 0 hours 0 minutes 33 seconds 672 msec
