
                                 *****************
                                 * O   R   C   A *
                                 *****************

           --- An Ab Initio, DFT and Semiempirical electronic structure package ---

                  #######################################################
                  #                        -***-                        #
                  #          Department of theory and spectroscopy      #
                  #               Directorship: Frank Neese             #
                  #        Max Planck Institute fuer Kohlenforschung    #
                  #                Kaiser Wilhelm Platz 1               #
                  #                 D-45470 Muelheim/Ruhr               #
                  #                      Germany                        #
                  #                                                     #
                  #                  All rights reserved                #
                  #                        -***-                        #
                  #######################################################


                         Program Version 4.2.1 -  RELEASE  -


 With contributions from (in alphabetic order):
   Daniel Aravena         : Magnetic Suceptibility
   Michael Atanasov       : Ab Initio Ligand Field Theory (pilot matlab implementation)
   Alexander A. Auer      : GIAO ZORA, VPT2
   Ute Becker             : Parallelization
   Giovanni Bistoni       : ED, misc. LED, open-shell LED, HFLD
   Martin Brehm           : Molecular dynamics
   Dmytro Bykov           : SCF Hessian
   Vijay G. Chilkuri      : MRCI spin determinant printing, contributions to CSF-ICE
   Dipayan Datta          : RHF DLPNO-CCSD density
   Achintya Kumar Dutta   : EOM-CC, STEOM-CC
   Dmitry Ganyushin       : Spin-Orbit,Spin-Spin,Magnetic field MRCI
   Miquel Garcia          : C-PCM Hessian, Gaussian charge scheme
   Yang Guo               : DLPNO-NEVPT2, CIM, IAO-localization
   Andreas Hansen         : Spin unrestricted coupled pair/coupled cluster methods
   Benjamin Helmich-Paris : CASSCF linear response (MC-RPA)
   Lee Huntington         : MR-EOM, pCC
   Robert Izsak           : Overlap fitted RIJCOSX, COSX-SCS-MP3, EOM
   Christian Kollmar      : KDIIS, OOCD, Brueckner-CCSD(T), CCSD density
   Simone Kossmann        : Meta GGA functionals, TD-DFT gradient, OOMP2, MP2 Hessian
   Martin Krupicka        : AUTO-CI
   Lucas Lang             : DCDCAS
   Dagmar Lenk            : GEPOL surface, SMD
   Dimitrios Liakos       : Extrapolation schemes; Compound Job, initial MDCI parallelization
   Dimitrios Manganas     : Further ROCIS development; embedding schemes
   Dimitrios Pantazis     : SARC Basis sets
   Taras Petrenko         : DFT Hessian,TD-DFT gradient, ASA, ECA, R-Raman, ABS, FL, XAS/XES, NRVS
   Peter Pinski           : DLPNO-MP2, DLPNO-MP2 Gradient
   Christoph Reimann      : Effective Core Potentials
   Marius Retegan         : Local ZFS, SOC
   Christoph Riplinger    : Optimizer, TS searches, QM/MM, DLPNO-CCSD(T), (RO)-DLPNO pert. Triples
   Tobias Risthaus        : Range-separated hybrids, TD-DFT gradient, RPA, STAB
   Michael Roemelt        : Original ROCIS implementation
   Masaaki Saitow         : Open-shell DLPNO-CCSD energy and density
   Barbara Sandhoefer     : DKH picture change effects
   Avijit Sen             : IP-ROCIS
   Kantharuban Sivalingam : CASSCF convergence, NEVPT2, FIC-MRCI
   Bernardo de Souza      : ESD, SOC TD-DFT
   Georgi Stoychev        : AutoAux, RI-MP2 NMR
   Willem Van den Heuvel  : Paramagnetic NMR
   Boris Wezisla          : Elementary symmetry handling
   Frank Wennmohs         : Technical directorship


 We gratefully acknowledge several colleagues who have allowed us to
 interface, adapt or use parts of their codes:
   Stefan Grimme, W. Hujo, H. Kruse,             : VdW corrections, initial TS optimization,
                  C. Bannwarth                     DFT functionals, gCP, sTDA/sTD-DF
   Ed Valeev, F. Pavosevic, A. Kumar             : LibInt (2-el integral package), F12 methods
   Garnet Chan, S. Sharma, J. Yang, R. Olivares  : DMRG
   Ulf Ekstrom                                   : XCFun DFT Library
   Mihaly Kallay                                 : mrcc  (arbitrary order and MRCC methods)
   Andreas Klamt, Michael Diedenhofen            : otool_cosmo (COSMO solvation model)
   Jiri Pittner, Ondrej Demel                    : Mk-CCSD
   Frank Weinhold                                : gennbo (NPA and NBO analysis)
   Christopher J. Cramer and Donald G. Truhlar   : smd solvation model
   Lars Goerigk                                  : TD-DFT with DH, B97 family of functionals
   V. Asgeirsson, H. Jonsson                     : NEB implementation
   FAccTs GmbH                                   : IRC, NEB, NEB-TS, Multilevel, MM, QM/MM, CI optimization
   S Lehtola, MJT Oliveira, MAL Marques          : LibXC Library


 Your calculation uses the libint2 library for the computation of 2-el integrals
 For citations please refer to: http://libint.valeyev.net

 Your ORCA version has been built with support for libXC version: 4.2.3
 For citations please refer to: https://tddft.org/programs/libxc/

 This ORCA versions uses:
   CBLAS   interface :  Fast vector & matrix operations
   LAPACKE interface :  Fast linear algebra routines
   SCALAPACK package :  Parallel linear algebra routines


Your calculation utilizes the atom-pairwise dispersion correction
with the zero-damping scheme (D30)
Cite in your paper:
S.Grimme, J.Antony, S.Ehrlich and H.Krieg, J.Chem.Phys., 132, (2010), 154104 
   

XCFun DFT library Copyright 2009-2010 Ulf Ekstrom and contributors.
See http://admol.org/xcfun for more information. This is free soft-
ware; see the source code for copying conditions. There is ABSOLUTELY
NO WARRANTY; not even for MERCHANTABILITY or FITNESS FOR A PARTICULAR
PURPOSE. For details see the documentation. Scientific users of this 
library should cite U. Ekstrom, L. Visscher, R. Bast, A. J. Thorvald-
sen and K. Ruud; J.Chem.Theor.Comp. 2010, DOI: 10.1021/ct100117s
XCFun Version 0.99 
----- Orbital basis set information -----
Your calculation utilizes the basis: def2-SVP
   F. Weigend and R. Ahlrichs, Phys. Chem. Chem. Phys. 7, 3297 (2005).

================================================================================
                                        WARNINGS
                       Please study these warnings very carefully!
================================================================================


INFO   : the flag for use of LIBINT has been found!

================================================================================
                                       INPUT FILE
================================================================================
NAME = config_5569.inp
|  1> ! wB97X-D3 SP def2-SVP
|  2> %pal
|  3> nprocs 16
|  4> end
|  5> 
|  6> * xyz 0 1
|  7> S 	 11.3923 	 -17.5949 	 89.3072 	 
|  8> C 	 13.1859 	 -17.6226 	 88.9663 	 
|  9> C 	 13.7355 	 -16.3526 	 89.0361 	 
| 10> C 	 12.755 	 -15.3405 	 89.2373 	 
| 11> C 	 11.4366 	 -15.7458 	 89.3336 	 
| 12> H 	 13.0017 	 -14.2865 	 89.0885 	 
| 13> C 	 15.1169 	 -15.9882 	 88.7275 	 
| 14> H 	 15.8139 	 -16.6191 	 89.2653 	 
| 15> H 	 15.2879 	 -14.9515 	 89.1301 	 
| 16> C 	 15.5008 	 -16.0027 	 87.2735 	 
| 17> H 	 15.5211 	 -17.0188 	 86.9093 	 
| 18> H 	 14.7397 	 -15.5384 	 86.7549 	 
| 19> C 	 16.6815 	 -15.1855 	 86.8811 	 
| 20> H 	 16.8082 	 -15.1401 	 85.7846 	 
| 21> H 	 16.7243 	 -14.1461 	 87.2869 	 
| 22> H 	 17.5006 	 -15.7024 	 87.3812 	 
| 23> S 	 9.1036 	 -15.3918 	 90.7967 	 
| 24> C 	 8.04097 	 -14.0384 	 90.5673 	 
| 25> C 	 8.54321 	 -13.3521 	 89.4997 	 
| 26> C 	 9.78962 	 -13.7858 	 88.9231 	 
| 27> C 	 10.2415 	 -14.9346 	 89.5137 	 
| 28> H 	 7.84049 	 -12.6256 	 89.0902 	 
| 29> C 	 10.4258 	 -13.1479 	 87.6812 	 
| 30> H 	 9.59143 	 -13.086 	 86.9183 	 
| 31> H 	 11.1094 	 -13.8737 	 87.3645 	 
| 32> C 	 11.0921 	 -11.8037 	 87.9046 	 
| 33> H 	 11.8588 	 -11.993 	 88.6468 	 
| 34> H 	 10.3618 	 -11.1677 	 88.4296 	 
| 35> C 	 11.72 	 -11.2102 	 86.6404 	 
| 36> H 	 11.0955 	 -10.7822 	 85.913 	 
| 37> H 	 12.1471 	 -12.049 	 86.1954 	 
| 38> H 	 12.3798 	 -10.3805 	 86.9754 	 
| 39> H 	 13.8482 	 -18.5295 	 89.0971 	 
| 40> H 	 7.06566 	 -13.8726 	 91.0039 	 
| 41> *
| 42> 
| 43>                          ****END OF INPUT****
================================================================================

                       ****************************
                       * Single Point Calculation *
                       ****************************

---------------------------------
CARTESIAN COORDINATES (ANGSTROEM)
---------------------------------
  S     11.392300  -17.594900   89.307200
  C     13.185900  -17.622600   88.966300
  C     13.735500  -16.352600   89.036100
  C     12.755000  -15.340500   89.237300
  C     11.436600  -15.745800   89.333600
  H     13.001700  -14.286500   89.088500
  C     15.116900  -15.988200   88.727500
  H     15.813900  -16.619100   89.265300
  H     15.287900  -14.951500   89.130100
  C     15.500800  -16.002700   87.273500
  H     15.521100  -17.018800   86.909300
  H     14.739700  -15.538400   86.754900
  C     16.681500  -15.185500   86.881100
  H     16.808200  -15.140100   85.784600
  H     16.724300  -14.146100   87.286900
  H     17.500600  -15.702400   87.381200
  S      9.103600  -15.391800   90.796700
  C      8.040970  -14.038400   90.567300
  C      8.543210  -13.352100   89.499700
  C      9.789620  -13.785800   88.923100
  C     10.241500  -14.934600   89.513700
  H      7.840490  -12.625600   89.090200
  C     10.425800  -13.147900   87.681200
  H      9.591430  -13.086000   86.918300
  H     11.109400  -13.873700   87.364500
  C     11.092100  -11.803700   87.904600
  H     11.858800  -11.993000   88.646800
  H     10.361800  -11.167700   88.429600
  C     11.720000  -11.210200   86.640400
  H     11.095500  -10.782200   85.913000
  H     12.147100  -12.049000   86.195400
  H     12.379800  -10.380500   86.975400
  H     13.848200  -18.529500   89.097100
  H      7.065660  -13.872600   91.003900

----------------------------
CARTESIAN COORDINATES (A.U.)
----------------------------
  NO LB      ZA    FRAG     MASS         X           Y           Z
   0 S    16.0000    0    32.060   21.528327  -33.249542  168.766150
   1 C     6.0000    0    12.011   24.917740  -33.301888  168.121942
   2 C     6.0000    0    12.011   25.956333  -30.901936  168.253845
   3 C     6.0000    0    12.011   24.103457  -28.989344  168.634058
   4 C     6.0000    0    12.011   21.612042  -29.755250  168.816039
   5 H     1.0000    0     1.008   24.569652  -26.997572  168.352867
   6 C     6.0000    0    12.011   28.566801  -30.213319  167.670676
   7 H     1.0000    0     1.008   29.883940  -31.405548  168.686970
   8 H     1.0000    0     1.008   28.889944  -28.254240  168.431479
   9 C     6.0000    0    12.011   29.292267  -30.240720  164.923014
  10 H     1.0000    0     1.008   29.330628  -32.160871  164.234775
  11 H     1.0000    0     1.008   27.853996  -29.363321  163.943002
  12 C     6.0000    0    12.011   31.523467  -28.696436  164.181485
  13 H     1.0000    0     1.008   31.762895  -28.610643  162.109401
  14 H     1.0000    0     1.008   31.604347  -26.732255  164.948336
  15 H     1.0000    0     1.008   33.071341  -29.673236  165.126537
  16 S    16.0000    0    32.060   17.203311  -29.086287  171.580897
  17 C     6.0000    0    12.011   15.195231  -26.528731  171.147394
  18 C     6.0000    0    12.011   16.144327  -25.231812  169.129922
  19 C     6.0000    0    12.011   18.499701  -26.051387  168.040306
  20 C     6.0000    0    12.011   19.353630  -28.222304  169.156378
  21 H     1.0000    0     1.008   14.816379  -23.858926  168.356079
  22 C     6.0000    0    12.011   19.701907  -24.845930  165.693455
  23 H     1.0000    0     1.008   18.125176  -24.728956  164.251783
  24 H     1.0000    0     1.008   20.993724  -26.217493  165.094979
  25 C     6.0000    0    12.011   20.961031  -22.305760  166.115620
  26 H     1.0000    0     1.008   22.409884  -22.663486  167.518175
  27 H     1.0000    0     1.008   19.580964  -21.103895  167.107726
  28 C     6.0000    0    12.011   22.147590  -21.184208  163.726628
  29 H     1.0000    0     1.008   20.967456  -20.375405  162.352041
  30 H     1.0000    0     1.008   22.954692  -22.769310  162.885700
  31 H     1.0000    0     1.008   23.394432  -19.616302  164.359686
  32 H     1.0000    0     1.008   26.169305  -35.015680  168.369118
  33 H     1.0000    0     1.008   13.352162  -26.215415  171.972448

--------------------------------
INTERNAL COORDINATES (ANGSTROEM)
--------------------------------
 S      0   0   0     0.000000000000     0.00000000     0.00000000
 C      1   0   0     1.825919236987     0.00000000     0.00000000
 C      2   1   0     1.385580095123   111.48919968     0.00000000
 C      3   2   1     1.423449366855   112.68124218   354.84928362
 C      4   3   2     1.382649753191   117.27313301     0.05877557
 H      4   3   2     1.092665699105   120.73643835   193.91953968
 C      3   2   1     1.461604351389   126.35400589   184.68109724
 H      7   3   2     1.083084784308   110.98679788   308.29039750
 H      7   3   2     1.125199826697   107.32513227   193.91318000
 C      7   3   2     1.503896758425   116.29489350    72.35348072
 H     10   7   3     1.079589245963   109.87884637   290.57429574
 H     10   7   3     1.031403732784   107.06261464    44.71727527
 C     10   7   3     1.488571828969   116.87486785   158.08832288
 H     13  10   7     1.104729061807   112.03507963   187.94378459
 H     13  10   7     1.116627887884   116.46280910   313.72900449
 H     13  10   7     1.090050654786   102.40100846    66.72446962
 S      5   4   3     2.776484577663   143.18294351   135.06983894
 C     17   5   4     1.735943097253   122.96489098    79.72858390
 C     18  17   5     1.364925810292   105.67188941     5.39552055
 C     19  18  17     1.440173995773   118.69789846   355.01812364
 C     20  19  18     1.368482858643   111.45632980     4.54673365
 H     19  18  17     1.090553941078   113.05152345   165.48372617
 C     20  19  18     1.534261063965   123.89900719   176.80365920
 H     23  20  19     1.132263801815   105.22221826   311.51992965
 H     23  20  19     1.046132634994   103.15241735   197.98243707
 C     23  20  19     1.516818014793   115.55533822    75.59702546
 H     26  23  20     1.083754686264   104.88242405    59.35569705
 H     26  23  20     1.101571191526   106.89526754   309.23490179
 C     26  23  20     1.531242077531   113.70431130   179.64076004
 H     29  26  23     1.049902381176   119.08426393    75.71180182
 H     29  26  23     1.041165140600   102.05323233   319.47553138
 H     29  26  23     1.111738786766   106.49007832   193.87650866
 H      2   1   3     1.130582831994   124.47206241   156.67257334
 H     18  17   5     1.081359697834   128.19099570   172.48248744

---------------------------
INTERNAL COORDINATES (A.U.)
---------------------------
 S      0   0   0     0.000000000000     0.00000000     0.00000000
 C      1   0   0     3.450487300564     0.00000000     0.00000000
 C      2   1   0     2.618366916394   111.48919968     0.00000000
 C      3   2   1     2.689929468860   112.68124218   354.84928362
 C      4   3   2     2.612829372665   117.27313301     0.05877557
 H      4   3   2     2.064838927238   120.73643835   193.91953968
 C      3   2   1     2.762031940273   126.35400589   184.68109724
 H      7   3   2     2.046733622160   110.98679788   308.29039750
 H      7   3   2     2.126319518394   107.32513227   193.91318000
 C      7   3   2     2.841953007114   116.29489350    72.35348072
 H     10   7   3     2.040128011998   109.87884637   290.57429574
 H     10   7   3     1.949070588465   107.06261464    44.71727527
 C     10   7   3     2.812993087422   116.87486785   158.08832288
 H     13  10   7     2.087635378998   112.03507963   187.94378459
 H     13  10   7     2.110120901599   116.46280910   313.72900449
 H     13  10   7     2.059897209648   102.40100846    66.72446962
 S      5   4   3     5.246795466839   143.18294351   135.06983894
 C     17   5   4     3.280457037879   122.96489098    79.72858390
 C     18  17   5     2.579335974572   105.67188941     5.39552055
 C     19  18  17     2.721534437206   118.69789846   355.01812364
 C     20  19  18     2.586057821801   111.45632980     4.54673365
 H     19  18  17     2.060848282905   113.05152345   165.48372617
 C     20  19  18     2.899333228833   123.89900719   176.80365920
 H     23  20  19     2.139668496782   105.22221826   311.51992965
 H     23  20  19     1.976904179897   103.15241735   197.98243707
 C     23  20  19     2.866370642957   115.55533822    75.59702546
 H     26  23  20     2.047999553393   104.88242405    59.35569705
 H     26  23  20     2.081667869001   106.89526754   309.23490179
 C     26  23  20     2.893628171269   113.70431130   179.64076004
 H     29  26  23     1.984027967775   119.08426393    75.71180182
 H     29  26  23     1.967516975919   102.05323233   319.47553138
 H     29  26  23     2.100881839446   106.49007832   193.87650866
 H      2   1   3     2.136491924182   124.47206241   156.67257334
 H     18  17   5     2.043473681166   128.19099570   172.48248744

---------------------
BASIS SET INFORMATION
---------------------
There are 3 groups of distinct atoms

 Group   1 Type S   : 10s7p1d contracted to 4s3p1d pattern {5311/511/1}
 Group   2 Type C   : 7s4p1d contracted to 3s2p1d pattern {511/31/1}
 Group   3 Type H   : 4s1p contracted to 2s1p pattern {31/1}

Atom   0S    basis set group =>   1
Atom   1C    basis set group =>   2
Atom   2C    basis set group =>   2
Atom   3C    basis set group =>   2
Atom   4C    basis set group =>   2
Atom   5H    basis set group =>   3
Atom   6C    basis set group =>   2
Atom   7H    basis set group =>   3
Atom   8H    basis set group =>   3
Atom   9C    basis set group =>   2
Atom  10H    basis set group =>   3
Atom  11H    basis set group =>   3
Atom  12C    basis set group =>   2
Atom  13H    basis set group =>   3
Atom  14H    basis set group =>   3
Atom  15H    basis set group =>   3
Atom  16S    basis set group =>   1
Atom  17C    basis set group =>   2
Atom  18C    basis set group =>   2
Atom  19C    basis set group =>   2
Atom  20C    basis set group =>   2
Atom  21H    basis set group =>   3
Atom  22C    basis set group =>   2
Atom  23H    basis set group =>   3
Atom  24H    basis set group =>   3
Atom  25C    basis set group =>   2
Atom  26H    basis set group =>   3
Atom  27H    basis set group =>   3
Atom  28C    basis set group =>   2
Atom  29H    basis set group =>   3
Atom  30H    basis set group =>   3
Atom  31H    basis set group =>   3
Atom  32H    basis set group =>   3
Atom  33H    basis set group =>   3


           ************************************************************
           *        Program running with 16 parallel MPI-processes    *
           *              working on a common directory               *
           ************************************************************
------------------------------------------------------------------------------
                           ORCA GTO INTEGRAL CALCULATION
------------------------------------------------------------------------------

                         BASIS SET STATISTICS AND STARTUP INFO

 # of primitive gaussian shells          ...  294
 # of primitive gaussian functions       ...  534
 # of contracted shells                  ...  154
 # of contracted basis functions         ...  322
 Highest angular momentum                ...    2
 Maximum contraction depth               ...    5
 Integral package used                   ... LIBINT
 Integral threshhold            Thresh   ...  1.000e-10
 Primitive cut-off              TCut     ...  1.000e-11


------------------------------ INTEGRAL EVALUATION ----------------------------


 * One electron integrals 
 Pre-screening matrix                    ... done
 Shell pair data                         ... done (   0.003 sec)



           ************************************************************
           *        Program running with 16 parallel MPI-processes    *
           *              working on a common directory               *
           ************************************************************
-------------------------------------------------------------------------------
                                 ORCA SCF
-------------------------------------------------------------------------------

------------
SCF SETTINGS
------------
Hamiltonian:
 Density Functional     Method          .... DFT(GTOs)
 Exchange Functional    Exchange        .... WB97X-D3
 Correlation Functional Correlation     .... WB97X-D3
 Gradients option       PostSCFGGA      .... off
 Hybrid DFT is turned on
   Fraction HF Exchange ScalHFX         ....  0.195728
   Scaling of DF-GGA-X  ScalDFX         ....  0.000000
   Scaling of DF-GGA-C  ScalDFC         ....  1.000000
   Scaling of DF-LDA-C  ScalLDAC        ....  1.000000
   Perturbative correction              ....  0.000000
   Density functional embedding theory  .... OFF
 Long-range corrected/Screened/Range-Separated Hybrid DFT is turned on
   Amount of maximum screened exact exchange              ....  0.804272
   Range separation parameter mu (erf(mu*r12)/r12)        ....  0.250000


General Settings:
 Integral files         IntName         .... config_5569
 Hartree-Fock type      HFTyp           .... RHF
 Total Charge           Charge          ....    0
 Multiplicity           Mult            ....    1
 Number of Electrons    NEL             ....  134
 Basis Dimension        Dim             ....  322
 Nuclear Repulsion      ENuc            ....   1272.1344081583 Eh

Convergence Acceleration:
 DIIS                   CNVDIIS         .... on
   Start iteration      DIISMaxIt       ....    12
   Startup error        DIISStart       ....  0.200000
   # of expansion vecs  DIISMaxEq       ....     5
   Bias factor          DIISBfac        ....   1.050
   Max. coefficient     DIISMaxC        ....  10.000
 Newton-Raphson         CNVNR           .... off
 SOSCF                  CNVSOSCF        .... on
   Start iteration      SOSCFMaxIt      ....   150
   Startup grad/error   SOSCFStart      ....  0.003300
 Level Shifting         CNVShift        .... on
   Level shift para.    LevelShift      ....    0.2500
   Turn off err/grad.   ShiftErr        ....    0.0010
 Zerner damping         CNVZerner       .... off
 Static damping         CNVDamp         .... on
   Fraction old density DampFac         ....    0.7000
   Max. Damping (<1)    DampMax         ....    0.9800
   Min. Damping (>=0)   DampMin         ....    0.0000
   Turn off err/grad.   DampErr         ....    0.1000
 Fernandez-Rico         CNVRico         .... off

SCF Procedure:
 Maximum # iterations   MaxIter         ....   125
 SCF integral mode      SCFMode         .... Direct
   Integral package                     .... LIBINT
 Reset frequency        DirectResetFreq ....    20
 Integral Threshold     Thresh          ....  1.000e-10 Eh
 Primitive CutOff       TCut            ....  1.000e-11 Eh

Convergence Tolerance:
 Convergence Check Mode ConvCheckMode   .... Total+1el-Energy
 Convergence forced     ConvForced      .... 0
 Energy Change          TolE            ....  1.000e-06 Eh
 1-El. energy change                    ....  1.000e-03 Eh
 Orbital Gradient       TolG            ....  5.000e-05
 Orbital Rotation angle TolX            ....  5.000e-05
 DIIS Error             TolErr          ....  1.000e-06


Diagonalization of the overlap matrix:
Smallest eigenvalue                        ... 6.163e-04
Time for diagonalization                   ...    0.016 sec
Threshold for overlap eigenvalues          ... 1.000e-08
Number of eigenvalues below threshold      ... 0
Time for construction of square roots      ...    0.046 sec
Total time needed                          ...    0.063 sec

-------------------
DFT GRID GENERATION
-------------------

General Integration Accuracy     IntAcc      ...  4.340
Radial Grid Type                 RadialGrid  ... Gauss-Chebyshev
Angular Grid (max. acc.)         AngularGrid ... Lebedev-110
Angular grid pruning method      GridPruning ... 3 (G Style)
Weight generation scheme         WeightScheme... Becke
Basis function cutoff            BFCut       ...    1.0000e-10
Integration weight cutoff        WCut        ...    1.0000e-14
Grids for H and He will be reduced by one unit

# of grid points (after initial pruning)     ...  41088 (   0.0 sec)
# of grid points (after weights+screening)   ...  36982 (   0.0 sec)
nearest neighbour list constructed           ...    0.0 sec
Grid point re-assignment to atoms done       ...    0.0 sec
Grid point division into batches done        ...    0.0 sec
Reduced shell lists constructed in    0.1 sec

Total number of grid points                  ...    36982
Total number of batches                      ...      597
Average number of points per batch           ...       61
Average number of grid points per atom       ...     1088
Average number of shells per batch           ...    72.41 (47.02%)
Average number of basis functions per batch  ...   143.28 (44.50%)
Average number of large shells per batch     ...    44.82 (61.90%)
Average number of large basis fcns per batch ...    92.72 (64.71%)
Maximum spatial batch extension              ...  15.06, 14.89, 21.35 au
Average spatial batch extension              ...   0.22,  0.22,  0.27 au

Time for grid setup =    0.207 sec

------------------------------
INITIAL GUESS: MODEL POTENTIAL
------------------------------
Loading Hartree-Fock densities                     ... done
Calculating cut-offs                               ... done
Setting up the integral package                    ... done
Initializing the effective Hamiltonian             ... done
Starting the Coulomb interaction                   ... done (   0.0 sec)
Reading the grid                                   ... done
Mapping shells                                     ... done
Starting the XC term evaluation                    ... done (   0.1 sec)
  promolecular density results
     # of electrons  =    133.993760471
     EX              =   -126.733104050
     EC              =     -4.619622613
     EX+EC           =   -131.352726663
Transforming the Hamiltonian                       ... done (   0.0 sec)
Diagonalizing the Hamiltonian                      ... done (   0.0 sec)
Back transforming the eigenvectors                 ... done (   0.0 sec)
Now organizing SCF variables                       ... done
                      ------------------
                      INITIAL GUESS DONE (   0.4 sec)
                      ------------------
--------------
SCF ITERATIONS
--------------
ITER       Energy         Delta-E        Max-DP      RMS-DP      [F,P]     Damp
               ***  Starting incremental Fock matrix formation  ***
  0  -1339.3996260606   0.000000000000 0.06646623  0.00158837  0.1597249 0.7000
  1  -1339.5909189963  -0.191292935712 0.04481099  0.00115763  0.0963137 0.7000
                               ***Turning on DIIS***
  2  -1339.6834613992  -0.092542402865 0.08747030  0.00218464  0.0502591 0.0000
  3  -1339.8228139963  -0.139352597090 0.04451437  0.00098426  0.0462132 0.0000
  4  -1339.8531573557  -0.030343359413 0.00807071  0.00020688  0.0079305 0.0000
                      *** Initiating the SOSCF procedure ***
                           *** Shutting down DIIS ***
                      *** Re-Reading the Fockian *** 
                      *** Removing any level shift *** 
ITER      Energy       Delta-E        Grad      Rot      Max-DP    RMS-DP
  5  -1339.85412288  -0.0009655231  0.001600  0.001600  0.002939  0.000103
               *** Restarting incremental Fock matrix formation ***
  6  -1339.85432941  -0.0002065286  0.001383  0.003937  0.003111  0.000067
  7  -1339.85440272  -0.0000733102  0.000853  0.005344  0.004106  0.000067
  8  -1339.85442223  -0.0000195105  0.000363  0.000710  0.000989  0.000021
  9  -1339.85442770  -0.0000054724  0.000164  0.000350  0.000316  0.000010
 10  -1339.85442819  -0.0000004909  0.000076  0.000229  0.000184  0.000004
                 **** Energy Check signals convergence ****
              ***Rediagonalizing the Fockian in SOSCF/NRSCF***

               *****************************************************
               *                     SUCCESS                       *
               *           SCF CONVERGED AFTER  11 CYCLES          *
               *****************************************************

Setting up the final grid:

General Integration Accuracy     IntAcc      ...  4.670
Radial Grid Type                 RadialGrid  ... Gauss-Chebyshev
Angular Grid (max. acc.)         AngularGrid ... Lebedev-302
Angular grid pruning method      GridPruning ... 3 (G Style)
Weight generation scheme         WeightScheme... Becke
Basis function cutoff            BFCut       ...    1.0000e-10
Integration weight cutoff        WCut        ...    1.0000e-14
Grids for H and He will be reduced by one unit

# of grid points (after initial pruning)     ... 161752 (   0.0 sec)
# of grid points (after weights+screening)   ... 142834 (   0.2 sec)
nearest neighbour list constructed           ...    0.0 sec
Grid point re-assignment to atoms done       ...    0.0 sec
Grid point division into batches done        ...    0.5 sec
Reduced shell lists constructed in    0.6 sec

Total number of grid points                  ...   142834
Total number of batches                      ...     2248
Average number of points per batch           ...       63
Average number of grid points per atom       ...     4201
Average number of shells per batch           ...    65.85 (42.76%)
Average number of basis functions per batch  ...   130.45 (40.51%)
Average number of large shells per batch     ...    40.00 (60.75%)
Average number of large basis fcns per batch ...    82.23 (63.03%)
Maximum spatial batch extension              ...  13.63, 13.75, 14.82 au
Average spatial batch extension              ...   0.14,  0.15,  0.16 au

Final grid set up in    1.0 sec
Final integration                            ... done (   0.3 sec)
Change in XC energy                          ...     0.007599403
Integrated number of electrons               ...   133.999873970
Previous integrated no of electrons          ...   134.001499412

----------------
TOTAL SCF ENERGY
----------------

Total Energy       :        -1339.84682913 Eh          -36459.08576 eV

Components:
Nuclear Repulsion  :         1272.13440816 Eh           34616.53712 eV
Electronic Energy  :        -2611.98123729 Eh          -71075.62288 eV
One Electron Energy:        -4360.65364962 Eh         -118659.41833 eV
Two Electron Energy:         1748.67241233 Eh           47583.79545 eV

Virial components:
Potential Energy   :        -2671.50125463 Eh          -72695.24489 eV
Kinetic Energy     :         1331.65442550 Eh           36236.15913 eV
Virial Ratio       :            2.00615205


DFT components:
N(Alpha)           :       66.999936985212 electrons
N(Beta)            :       66.999936985212 electrons
N(Total)           :      133.999873970424 electrons
E(XC)              :      -94.275818343468 Eh       
DFET-embed. en.    :        0.000000000000 Eh       

---------------
SCF CONVERGENCE
---------------

  Last Energy change         ...   -3.4615e-07  Tolerance :   1.0000e-06
  Last MAX-Density change    ...    4.2052e-05  Tolerance :   1.0000e-05
  Last RMS-Density change    ...    8.5592e-07  Tolerance :   1.0000e-06
  Last Orbital Gradient      ...    9.0324e-06  Tolerance :   5.0000e-05
  Last Orbital Rotation      ...    2.9192e-05  Tolerance :   5.0000e-05

             **** THE GBW FILE WAS UPDATED (config_5569.gbw) ****
             **** DENSITY FILE WAS UPDATED (config_5569.scfp) ****
             **** ENERGY FILE WAS UPDATED (config_5569.en.tmp) ****
             **** THE GBW FILE WAS UPDATED (config_5569.gbw) ****
             **** DENSITY FILE WAS UPDATED (config_5569.scfp) ****
----------------
ORBITAL ENERGIES
----------------

  NO   OCC          E(Eh)            E(eV) 
   0   2.0000     -88.969091     -2420.9721 
   1   2.0000     -88.960703     -2420.7438 
   2   2.0000     -10.343035      -281.4483 
   3   2.0000     -10.331151      -281.1249 
   4   2.0000     -10.325960      -280.9837 
   5   2.0000     -10.318172      -280.7717 
   6   2.0000     -10.306393      -280.4512 
   7   2.0000     -10.301587      -280.3204 
   8   2.0000     -10.299506      -280.2638 
   9   2.0000     -10.293359      -280.0965 
  10   2.0000     -10.291200      -280.0378 
  11   2.0000     -10.291043      -280.0335 
  12   2.0000     -10.286708      -279.9156 
  13   2.0000     -10.281376      -279.7705 
  14   2.0000     -10.274709      -279.5890 
  15   2.0000     -10.274619      -279.5866 
  16   2.0000      -8.081143      -219.8991 
  17   2.0000      -8.075654      -219.7497 
  18   2.0000      -6.040012      -164.3571 
  19   2.0000      -6.036164      -164.2524 
  20   2.0000      -6.034230      -164.1997 
  21   2.0000      -6.031528      -164.1262 
  22   2.0000      -6.030055      -164.0861 
  23   2.0000      -6.026345      -163.9852 
  24   2.0000      -1.004649       -27.3379 
  25   2.0000      -0.979861       -26.6634 
  26   2.0000      -0.923068       -25.1180 
  27   2.0000      -0.914621       -24.8881 
  28   2.0000      -0.875540       -23.8246 
  29   2.0000      -0.854283       -23.2462 
  30   2.0000      -0.844166       -22.9709 
  31   2.0000      -0.818367       -22.2689 
  32   2.0000      -0.784271       -21.3411 
  33   2.0000      -0.774144       -21.0655 
  34   2.0000      -0.710909       -19.3448 
  35   2.0000      -0.705161       -19.1884 
  36   2.0000      -0.702112       -19.1055 
  37   2.0000      -0.659209       -17.9380 
  38   2.0000      -0.639322       -17.3968 
  39   2.0000      -0.620903       -16.8956 
  40   2.0000      -0.597754       -16.2657 
  41   2.0000      -0.571798       -15.5594 
  42   2.0000      -0.569896       -15.5077 
  43   2.0000      -0.563769       -15.3409 
  44   2.0000      -0.540841       -14.7170 
  45   2.0000      -0.531173       -14.4540 
  46   2.0000      -0.524107       -14.2617 
  47   2.0000      -0.522103       -14.2072 
  48   2.0000      -0.506456       -13.7814 
  49   2.0000      -0.498595       -13.5675 
  50   2.0000      -0.494218       -13.4484 
  51   2.0000      -0.484860       -13.1937 
  52   2.0000      -0.473662       -12.8890 
  53   2.0000      -0.466614       -12.6972 
  54   2.0000      -0.456794       -12.4300 
  55   2.0000      -0.446315       -12.1449 
  56   2.0000      -0.440905       -11.9976 
  57   2.0000      -0.440014       -11.9734 
  58   2.0000      -0.436905       -11.8888 
  59   2.0000      -0.422954       -11.5092 
  60   2.0000      -0.419822       -11.4239 
  61   2.0000      -0.410468       -11.1694 
  62   2.0000      -0.408153       -11.1064 
  63   2.0000      -0.351853        -9.5744 
  64   2.0000      -0.332845        -9.0572 
  65   2.0000      -0.327174        -8.9029 
  66   2.0000      -0.297278        -8.0893 
  67   0.0000       0.018516         0.5038 
  68   0.0000       0.065022         1.7693 
  69   0.0000       0.102792         2.7971 
  70   0.0000       0.117533         3.1982 
  71   0.0000       0.122583         3.3357 
  72   0.0000       0.131369         3.5747 
  73   0.0000       0.150121         4.0850 
  74   0.0000       0.154789         4.2120 
  75   0.0000       0.159441         4.3386 
  76   0.0000       0.164455         4.4750 
  77   0.0000       0.174149         4.7388 
  78   0.0000       0.182301         4.9607 
  79   0.0000       0.187923         5.1136 
  80   0.0000       0.196986         5.3603 
  81   0.0000       0.197548         5.3755 
  82   0.0000       0.208400         5.6708 
  83   0.0000       0.214918         5.8482 
  84   0.0000       0.221955         6.0397 
  85   0.0000       0.225140         6.1264 
  86   0.0000       0.230984         6.2854 
  87   0.0000       0.234985         6.3943 
  88   0.0000       0.244363         6.6494 
  89   0.0000       0.246461         6.7066 
  90   0.0000       0.254519         6.9258 
  91   0.0000       0.263679         7.1751 
  92   0.0000       0.287540         7.8244 
  93   0.0000       0.299731         8.1561 
  94   0.0000       0.316553         8.6139 
  95   0.0000       0.329264         8.9597 
  96   0.0000       0.336534         9.1575 
  97   0.0000       0.345792         9.4095 
  98   0.0000       0.352597         9.5947 
  99   0.0000       0.372082        10.1249 
 100   0.0000       0.389201        10.5907 
 101   0.0000       0.404245        11.0001 
 102   0.0000       0.412597        11.2273 
 103   0.0000       0.426788        11.6135 
 104   0.0000       0.427357        11.6290 
 105   0.0000       0.448600        12.2070 
 106   0.0000       0.469823        12.7845 
 107   0.0000       0.484034        13.1712 
 108   0.0000       0.488227        13.2853 
 109   0.0000       0.496217        13.5028 
 110   0.0000       0.501987        13.6598 
 111   0.0000       0.505164        13.7462 
 112   0.0000       0.514692        14.0055 
 113   0.0000       0.519060        14.1243 
 114   0.0000       0.531247        14.4560 
 115   0.0000       0.542302        14.7568 
 116   0.0000       0.546305        14.8657 
 117   0.0000       0.557281        15.1644 
 118   0.0000       0.566531        15.4161 
 119   0.0000       0.574753        15.6398 
 120   0.0000       0.580055        15.7841 
 121   0.0000       0.592275        16.1166 
 122   0.0000       0.594574        16.1792 
 123   0.0000       0.604861        16.4591 
 124   0.0000       0.608398        16.5553 
 125   0.0000       0.617884        16.8135 
 126   0.0000       0.637023        17.3343 
 127   0.0000       0.640083        17.4175 
 128   0.0000       0.647825        17.6282 
 129   0.0000       0.660158        17.9638 
 130   0.0000       0.665575        18.1112 
 131   0.0000       0.675533        18.3822 
 132   0.0000       0.683647        18.6030 
 133   0.0000       0.696196        18.9445 
 134   0.0000       0.706337        19.2204 
 135   0.0000       0.712571        19.3900 
 136   0.0000       0.722735        19.6666 
 137   0.0000       0.725068        19.7301 
 138   0.0000       0.732989        19.9456 
 139   0.0000       0.739844        20.1322 
 140   0.0000       0.742571        20.2064 
 141   0.0000       0.748069        20.3560 
 142   0.0000       0.751017        20.4362 
 143   0.0000       0.760423        20.6922 
 144   0.0000       0.763415        20.7736 
 145   0.0000       0.768847        20.9214 
 146   0.0000       0.774244        21.0683 
 147   0.0000       0.776968        21.1424 
 148   0.0000       0.778251        21.1773 
 149   0.0000       0.779544        21.2125 
 150   0.0000       0.783780        21.3277 
 151   0.0000       0.788450        21.4548 
 152   0.0000       0.791230        21.5305 
 153   0.0000       0.794528        21.6202 
 154   0.0000       0.796683        21.6789 
 155   0.0000       0.799453        21.7542 
 156   0.0000       0.801910        21.8211 
 157   0.0000       0.816929        22.2298 
 158   0.0000       0.820570        22.3288 
 159   0.0000       0.823043        22.3961 
 160   0.0000       0.832169        22.6445 
 161   0.0000       0.835830        22.7441 
 162   0.0000       0.847077        23.0501 
 163   0.0000       0.854389        23.2491 
 164   0.0000       0.856551        23.3079 
 165   0.0000       0.870845        23.6969 
 166   0.0000       0.873425        23.7671 
 167   0.0000       0.879576        23.9345 
 168   0.0000       0.885529        24.0965 
 169   0.0000       0.899332        24.4721 
 170   0.0000       0.915076        24.9005 
 171   0.0000       0.918923        25.0052 
 172   0.0000       0.930199        25.3120 
 173   0.0000       0.942204        25.6387 
 174   0.0000       0.945037        25.7158 
 175   0.0000       0.957798        26.0630 
 176   0.0000       0.963783        26.2259 
 177   0.0000       0.986415        26.8417 
 178   0.0000       1.002698        27.2848 
 179   0.0000       1.036043        28.1922 
 180   0.0000       1.057713        28.7818 
 181   0.0000       1.069245        29.0956 
 182   0.0000       1.075346        29.2617 
 183   0.0000       1.101761        29.9804 
 184   0.0000       1.107925        30.1482 
 185   0.0000       1.117782        30.4164 
 186   0.0000       1.119811        30.4716 
 187   0.0000       1.131951        30.8020 
 188   0.0000       1.151592        31.3364 
 189   0.0000       1.169170        31.8147 
 190   0.0000       1.198394        32.6100 
 191   0.0000       1.217282        33.1239 
 192   0.0000       1.238427        33.6993 
 193   0.0000       1.256409        34.1886 
 194   0.0000       1.279687        34.8220 
 195   0.0000       1.283947        34.9380 
 196   0.0000       1.297853        35.3164 
 197   0.0000       1.328305        36.1450 
 198   0.0000       1.364100        37.1191 
 199   0.0000       1.391308        37.8594 
 200   0.0000       1.397247        38.0210 
 201   0.0000       1.430393        38.9230 
 202   0.0000       1.438796        39.1516 
 203   0.0000       1.458735        39.6942 
 204   0.0000       1.467818        39.9414 
 205   0.0000       1.486035        40.4371 
 206   0.0000       1.496508        40.7220 
 207   0.0000       1.506058        40.9819 
 208   0.0000       1.539662        41.8963 
 209   0.0000       1.561725        42.4967 
 210   0.0000       1.598070        43.4857 
 211   0.0000       1.610929        43.8356 
 212   0.0000       1.627154        44.2771 
 213   0.0000       1.629096        44.3300 
 214   0.0000       1.644648        44.7532 
 215   0.0000       1.663526        45.2668 
 216   0.0000       1.671289        45.4781 
 217   0.0000       1.677351        45.6431 
 218   0.0000       1.745942        47.5095 
 219   0.0000       1.782140        48.4945 
 220   0.0000       1.800128        48.9840 
 221   0.0000       1.803891        49.0864 
 222   0.0000       1.809004        49.2255 
 223   0.0000       1.814873        49.3852 
 224   0.0000       1.829444        49.7817 
 225   0.0000       1.838949        50.0403 
 226   0.0000       1.844010        50.1781 
 227   0.0000       1.854060        50.4515 
 228   0.0000       1.859775        50.6071 
 229   0.0000       1.861288        50.6482 
 230   0.0000       1.874170        50.9987 
 231   0.0000       1.875418        51.0327 
 232   0.0000       1.886434        51.3325 
 233   0.0000       1.896652        51.6105 
 234   0.0000       1.897821        51.6423 
 235   0.0000       1.899400        51.6853 
 236   0.0000       1.909487        51.9598 
 237   0.0000       1.918229        52.1977 
 238   0.0000       1.926752        52.4296 
 239   0.0000       1.932933        52.5978 
 240   0.0000       1.940724        52.8098 
 241   0.0000       1.948496        53.0213 
 242   0.0000       1.960446        53.3464 
 243   0.0000       1.971540        53.6483 
 244   0.0000       1.978912        53.8489 
 245   0.0000       1.989310        54.1319 
 246   0.0000       2.002313        54.4857 
 247   0.0000       2.011973        54.7486 
 248   0.0000       2.013140        54.7803 
 249   0.0000       2.035222        55.3812 
 250   0.0000       2.042530        55.5801 
 251   0.0000       2.051500        55.8241 
 252   0.0000       2.065216        56.1974 
 253   0.0000       2.070567        56.3430 
 254   0.0000       2.086329        56.7719 
 255   0.0000       2.093076        56.9555 
 256   0.0000       2.101689        57.1899 
 257   0.0000       2.131758        58.0081 
 258   0.0000       2.134661        58.0871 
 259   0.0000       2.143756        58.3346 
 260   0.0000       2.164111        58.8885 
 261   0.0000       2.172465        59.1158 
 262   0.0000       2.186907        59.5088 
 263   0.0000       2.208778        60.1039 
 264   0.0000       2.218495        60.3683 
 265   0.0000       2.233336        60.7722 
 266   0.0000       2.251758        61.2734 
 267   0.0000       2.261062        61.5266 
 268   0.0000       2.271936        61.8225 
 269   0.0000       2.296577        62.4930 
 270   0.0000       2.325226        63.2726 
 271   0.0000       2.357361        64.1471 
 272   0.0000       2.371870        64.5419 
 273   0.0000       2.383845        64.8677 
 274   0.0000       2.396957        65.2245 
 275   0.0000       2.418616        65.8139 
 276   0.0000       2.448089        66.6159 
 277   0.0000       2.460837        66.9628 
 278   0.0000       2.471988        67.2662 
 279   0.0000       2.488690        67.7207 
 280   0.0000       2.503467        68.1228 
 281   0.0000       2.511865        68.3513 
 282   0.0000       2.519098        68.5481 
 283   0.0000       2.524877        68.7054 
 284   0.0000       2.550338        69.3982 
 285   0.0000       2.560897        69.6855 
 286   0.0000       2.574941        70.0677 
 287   0.0000       2.586936        70.3941 
 288   0.0000       2.612914        71.1010 
 289   0.0000       2.629103        71.5415 
 290   0.0000       2.645459        71.9866 
 291   0.0000       2.658416        72.3392 
 292   0.0000       2.700841        73.4936 
 293   0.0000       2.709631        73.7328 
 294   0.0000       2.739952        74.5579 
 295   0.0000       2.768354        75.3307 
 296   0.0000       2.778955        75.6192 
 297   0.0000       2.791257        75.9540 
 298   0.0000       2.817810        76.6765 
 299   0.0000       2.822342        76.7998 
 300   0.0000       2.831794        77.0570 
 301   0.0000       2.874216        78.2114 
 302   0.0000       2.896780        78.8254 
 303   0.0000       2.935011        79.8657 
 304   0.0000       2.946507        80.1785 
 305   0.0000       3.000251        81.6410 
 306   0.0000       3.008347        81.8613 
 307   0.0000       3.014676        82.0335 
 308   0.0000       3.036552        82.6288 
 309   0.0000       3.054865        83.1271 
 310   0.0000       3.086452        83.9866 
 311   0.0000       3.098123        84.3042 
 312   0.0000       3.104919        84.4891 
 313   0.0000       3.119015        84.8727 
 314   0.0000       3.145106        85.5827 
 315   0.0000       3.157797        85.9280 
 316   0.0000       3.200066        87.0782 
 317   0.0000       3.227239        87.8176 
 318   0.0000       3.246239        88.3346 
 319   0.0000       3.302494        89.8654 
 320   0.0000       3.350284        91.1659 
 321   0.0000       3.419652        93.0535 

                    ********************************
                    * MULLIKEN POPULATION ANALYSIS *
                    ********************************

-----------------------
MULLIKEN ATOMIC CHARGES
-----------------------
   0 S :    0.086257
   1 C :   -0.132733
   2 C :   -0.095156
   3 C :    0.041350
   4 C :   -0.144699
   5 H :    0.013779
   6 C :    0.044612
   7 H :    0.021445
   8 H :    0.019263
   9 C :   -0.010808
  10 H :    0.025147
  11 H :   -0.002860
  12 C :   -0.060289
  13 H :    0.047360
  14 H :    0.034908
  15 H :    0.020521
  16 S :    0.085292
  17 C :   -0.086837
  18 C :   -0.050577
  19 C :   -0.044091
  20 C :   -0.142280
  21 H :    0.021493
  22 C :    0.061859
  23 H :    0.038806
  24 H :    0.008173
  25 C :   -0.079477
  26 H :    0.019374
  27 H :    0.026272
  28 C :    0.011999
  29 H :    0.021785
  30 H :    0.015015
  31 H :    0.043704
  32 H :    0.076391
  33 H :    0.065001
Sum of atomic charges:   -0.0000000

--------------------------------
MULLIKEN REDUCED ORBITAL CHARGES
--------------------------------
  0 S s       :     5.860269  s :     5.860269
      pz      :     3.694509  p :     9.967355
      px      :     3.167472
      py      :     3.105374
      dz2     :     0.010886  d :     0.086119
      dxz     :     0.013491
      dyz     :     0.011085
      dx2y2   :     0.041480
      dxy     :     0.009176
  1 C s       :     3.202768  s :     3.202768
      pz      :     1.089738  p :     2.897907
      px      :     0.823498
      py      :     0.984672
      dz2     :     0.002738  d :     0.032058
      dxz     :     0.004918
      dyz     :     0.004969
      dx2y2   :     0.010979
      dxy     :     0.008453
  2 C s       :     3.082342  s :     3.082342
      pz      :     0.991871  p :     2.967384
      px      :     0.992602
      py      :     0.982911
      dz2     :     0.003626  d :     0.045429
      dxz     :     0.006781
      dyz     :     0.007706
      dx2y2   :     0.011872
      dxy     :     0.015444
  3 C s       :     3.163745  s :     3.163745
      pz      :     1.010019  p :     2.760407
      px      :     0.902271
      py      :     0.848117
      dz2     :     0.002865  d :     0.034498
      dxz     :     0.007224
      dyz     :     0.003320
      dx2y2   :     0.011053
      dxy     :     0.010036
  4 C s       :     3.080237  s :     3.080237
      pz      :     1.080468  p :     3.022708
      px      :     0.991502
      py      :     0.950738
      dz2     :     0.003305  d :     0.041754
      dxz     :     0.007579
      dyz     :     0.004942
      dx2y2   :     0.015780
      dxy     :     0.010148
  5 H s       :     0.962589  s :     0.962589
      pz      :     0.005235  p :     0.023632
      px      :     0.003839
      py      :     0.014558
  6 C s       :     2.954906  s :     2.954906
      pz      :     1.001235  p :     2.962549
      px      :     0.964889
      py      :     0.996424
      dz2     :     0.007992  d :     0.037932
      dxz     :     0.009348
      dyz     :     0.007054
      dx2y2   :     0.007389
      dxy     :     0.006149
  7 H s       :     0.954838  s :     0.954838
      pz      :     0.007079  p :     0.023717
      px      :     0.008415
      py      :     0.008223
  8 H s       :     0.958905  s :     0.958905
      pz      :     0.005156  p :     0.021832
      px      :     0.004089
      py      :     0.012587
  9 C s       :     2.974078  s :     2.974078
      pz      :     0.969551  p :     2.996070
      px      :     1.014579
      py      :     1.011940
      dz2     :     0.008439  d :     0.040660
      dxz     :     0.009063
      dyz     :     0.007643
      dx2y2   :     0.008486
      dxy     :     0.007028
 10 H s       :     0.951718  s :     0.951718
      pz      :     0.005233  p :     0.023135
      px      :     0.004423
      py      :     0.013479
 11 H s       :     0.976097  s :     0.976097
      pz      :     0.007541  p :     0.026763
      px      :     0.011396
      py      :     0.007826
 12 C s       :     3.024757  s :     3.024757
      pz      :     0.997397  p :     3.005927
      px      :     1.017685
      py      :     0.990845
      dz2     :     0.007325  d :     0.029605
      dxz     :     0.004749
      dyz     :     0.003747
      dx2y2   :     0.007408
      dxy     :     0.006376
 13 H s       :     0.929944  s :     0.929944
      pz      :     0.013983  p :     0.022696
      px      :     0.004242
      py      :     0.004471
 14 H s       :     0.942611  s :     0.942611
      pz      :     0.005615  p :     0.022481
      px      :     0.004204
      py      :     0.012662
 15 H s       :     0.955028  s :     0.955028
      pz      :     0.006526  p :     0.024451
      px      :     0.010544
      py      :     0.007380
 16 S s       :     5.847583  s :     5.847583
      pz      :     3.420963  p :     9.959246
      px      :     3.166287
      py      :     3.371997
      dz2     :     0.019871  d :     0.107879
      dxz     :     0.025005
      dyz     :     0.015357
      dx2y2   :     0.019061
      dxy     :     0.028586
 17 C s       :     3.156492  s :     3.156492
      pz      :     1.028454  p :     2.894548
      px      :     0.929330
      py      :     0.936765
      dz2     :     0.008240  d :     0.035796
      dxz     :     0.006667
      dyz     :     0.005167
      dx2y2   :     0.007588
      dxy     :     0.008134
 18 C s       :     3.168675  s :     3.168675
      pz      :     0.940979  p :     2.846099
      px      :     0.932748
      py      :     0.972373
      dz2     :     0.008172  d :     0.035804
      dxz     :     0.007649
      dyz     :     0.006050
      dx2y2   :     0.005568
      dxy     :     0.008364
 19 C s       :     3.065734  s :     3.065734
      pz      :     1.008675  p :     2.934651
      px      :     0.961463
      py      :     0.964513
      dz2     :     0.008053  d :     0.043706
      dxz     :     0.009355
      dyz     :     0.008375
      dx2y2   :     0.010697
      dxy     :     0.007227
 20 C s       :     3.069431  s :     3.069431
      pz      :     0.983960  p :     3.028862
      px      :     0.997311
      py      :     1.047591
      dz2     :     0.008439  d :     0.043987
      dxz     :     0.010671
      dyz     :     0.006122
      dx2y2   :     0.007903
      dxy     :     0.010853
 21 H s       :     0.954766  s :     0.954766
      pz      :     0.005696  p :     0.023742
      px      :     0.008427
      py      :     0.009618
 22 C s       :     2.943822  s :     2.943822
      pz      :     1.000926  p :     2.957957
      px      :     0.988367
      py      :     0.968664
      dz2     :     0.005991  d :     0.036362
      dxz     :     0.008670
      dyz     :     0.006492
      dx2y2   :     0.005575
      dxy     :     0.009635
 23 H s       :     0.939676  s :     0.939676
      pz      :     0.008298  p :     0.021518
      px      :     0.009476
      py      :     0.003744
 24 H s       :     0.966576  s :     0.966576
      pz      :     0.006062  p :     0.025251
      px      :     0.009268
      py      :     0.009921
 25 C s       :     3.051462  s :     3.051462
      pz      :     1.004129  p :     2.990332
      px      :     1.009682
      py      :     0.976521
      dz2     :     0.005614  d :     0.037683
      dxz     :     0.011056
      dyz     :     0.007007
      dx2y2   :     0.005641
      dxy     :     0.008365
 26 H s       :     0.957435  s :     0.957435
      pz      :     0.008799  p :     0.023191
      px      :     0.009536
      py      :     0.004856
 27 H s       :     0.951300  s :     0.951300
      pz      :     0.006141  p :     0.022427
      px      :     0.009026
      py      :     0.007261
 28 C s       :     2.965677  s :     2.965677
      pz      :     0.969993  p :     2.993509
      px      :     1.045694
      py      :     0.977823
      dz2     :     0.004712  d :     0.028815
      dxz     :     0.007422
      dyz     :     0.007680
      dx2y2   :     0.001915
      dxy     :     0.007085
 29 H s       :     0.952067  s :     0.952067
      pz      :     0.009421  p :     0.026148
      px      :     0.008833
      py      :     0.007893
 30 H s       :     0.958081  s :     0.958081
      pz      :     0.007594  p :     0.026904
      px      :     0.007462
      py      :     0.011847
 31 H s       :     0.933419  s :     0.933419
      pz      :     0.005397  p :     0.022876
      px      :     0.007983
      py      :     0.009496
 32 H s       :     0.901620  s :     0.901620
      pz      :     0.004973  p :     0.021989
      px      :     0.006623
      py      :     0.010393
 33 H s       :     0.910961  s :     0.910961
      pz      :     0.006307  p :     0.024038
      px      :     0.013865
      py      :     0.003866


                     *******************************
                     * LOEWDIN POPULATION ANALYSIS *
                     *******************************

----------------------
LOEWDIN ATOMIC CHARGES
----------------------
   0 S :    0.337767
   1 C :   -0.182938
   2 C :   -0.066031
   3 C :   -0.058502
   4 C :   -0.156218
   5 H :    0.031787
   6 C :   -0.034272
   7 H :    0.028250
   8 H :    0.034344
   9 C :   -0.040054
  10 H :    0.026082
  11 H :    0.013550
  12 C :   -0.064662
  13 H :    0.032406
  14 H :    0.029017
  15 H :    0.022625
  16 S :    0.394635
  17 C :   -0.186285
  18 C :   -0.079847
  19 C :   -0.055615
  20 C :   -0.189447
  21 H :    0.030796
  22 C :   -0.028716
  23 H :    0.037569
  24 H :    0.017727
  25 C :   -0.040160
  26 H :    0.021705
  27 H :    0.023221
  28 C :   -0.055993
  29 H :    0.019496
  30 H :    0.020136
  31 H :    0.036486
  32 H :    0.043670
  33 H :    0.037472

-------------------------------
LOEWDIN REDUCED ORBITAL CHARGES
-------------------------------
  0 S s       :     5.577363  s :     5.577363
      pz      :     3.662511  p :     9.981720
      px      :     3.183254
      py      :     3.135955
      dz2     :     0.012576  d :     0.103149
      dxz     :     0.015531
      dyz     :     0.012640
      dx2y2   :     0.052328
      dxy     :     0.010073
  1 C s       :     2.962080  s :     2.962080
      pz      :     1.093816  p :     3.147122
      px      :     0.973989
      py      :     1.079317
      dz2     :     0.005309  d :     0.073736
      dxz     :     0.009581
      dyz     :     0.008685
      dx2y2   :     0.027314
      dxy     :     0.022846
  2 C s       :     2.854023  s :     2.854023
      pz      :     0.966122  p :     3.097604
      px      :     1.051865
      py      :     1.079617
      dz2     :     0.008369  d :     0.114404
      dxz     :     0.013964
      dyz     :     0.016651
      dx2y2   :     0.032128
      dxy     :     0.043293
  3 C s       :     2.868469  s :     2.868469
      pz      :     1.011154  p :     3.098551
      px      :     1.043300
      py      :     1.044097
      dz2     :     0.006937  d :     0.091482
      dxz     :     0.015119
      dyz     :     0.006222
      dx2y2   :     0.032414
      dxy     :     0.030790
  4 C s       :     2.919110  s :     2.919110
      pz      :     1.064870  p :     3.139051
      px      :     1.086888
      py      :     0.987293
      dz2     :     0.007045  d :     0.098058
      dxz     :     0.015527
      dyz     :     0.009885
      dx2y2   :     0.038791
      dxy     :     0.026811
  5 H s       :     0.899516  s :     0.899516
      pz      :     0.015885  p :     0.068697
      px      :     0.011975
      py      :     0.040837
  6 C s       :     2.816385  s :     2.816385
      pz      :     1.042042  p :     3.121113
      px      :     1.027155
      py      :     1.051917
      dz2     :     0.021562  d :     0.096774
      dxz     :     0.022561
      dyz     :     0.016046
      dx2y2   :     0.020684
      dxy     :     0.015922
  7 H s       :     0.902480  s :     0.902480
      pz      :     0.021606  p :     0.069270
      px      :     0.024959
      py      :     0.022705
  8 H s       :     0.904608  s :     0.904608
      pz      :     0.015448  p :     0.061048
      px      :     0.011520
      py      :     0.034080
  9 C s       :     2.801894  s :     2.801894
      pz      :     1.020155  p :     3.137867
      px      :     1.060966
      py      :     1.056745
      dz2     :     0.023226  d :     0.100294
      dxz     :     0.022046
      dyz     :     0.016571
      dx2y2   :     0.019950
      dxy     :     0.018499
 10 H s       :     0.905466  s :     0.905466
      pz      :     0.017208  p :     0.068451
      px      :     0.014393
      py      :     0.036851
 11 H s       :     0.905855  s :     0.905855
      pz      :     0.024322  p :     0.080595
      px      :     0.033590
      py      :     0.022683
 12 C s       :     2.833188  s :     2.833188
      pz      :     1.052320  p :     3.156348
      px      :     1.055466
      py      :     1.048561
      dz2     :     0.019739  d :     0.075126
      dxz     :     0.011970
      dyz     :     0.009327
      dx2y2   :     0.017328
      dxy     :     0.016762
 13 H s       :     0.903903  s :     0.903903
      pz      :     0.039002  p :     0.063691
      px      :     0.013119
      py      :     0.011570
 14 H s       :     0.908880  s :     0.908880
      pz      :     0.014775  p :     0.062103
      px      :     0.012679
      py      :     0.034649
 15 H s       :     0.909109  s :     0.909109
      pz      :     0.018158  p :     0.068266
      px      :     0.030474
      py      :     0.019634
 16 S s       :     5.504864  s :     5.504864
      pz      :     3.421052  p :     9.967760
      px      :     3.160169
      py      :     3.386539
      dz2     :     0.024199  d :     0.132741
      dxz     :     0.032528
      dyz     :     0.016509
      dx2y2   :     0.022722
      dxy     :     0.036784
 17 C s       :     2.928653  s :     2.928653
      pz      :     1.093994  p :     3.174172
      px      :     1.048737
      py      :     1.031441
      dz2     :     0.017708  d :     0.083461
      dxz     :     0.015826
      dyz     :     0.012985
      dx2y2   :     0.018071
      dxy     :     0.018870
 18 C s       :     2.869176  s :     2.869176
      pz      :     1.042937  p :     3.117638
      px      :     1.027555
      py      :     1.047146
      dz2     :     0.019199  d :     0.093032
      dxz     :     0.021549
      dyz     :     0.017548
      dx2y2   :     0.013796
      dxy     :     0.020941
 19 C s       :     2.860514  s :     2.860514
      pz      :     1.018671  p :     3.086700
      px      :     1.029814
      py      :     1.038214
      dz2     :     0.017905  d :     0.108401
      dxz     :     0.022029
      dyz     :     0.022316
      dx2y2   :     0.027099
      dxy     :     0.019053
 20 C s       :     2.903133  s :     2.903133
      pz      :     1.046438  p :     3.179960
      px      :     1.041326
      py      :     1.092197
      dz2     :     0.019131  d :     0.106354
      dxz     :     0.023443
      dyz     :     0.015838
      dx2y2   :     0.019626
      dxy     :     0.028315
 21 H s       :     0.899547  s :     0.899547
      pz      :     0.016537  p :     0.069656
      px      :     0.025222
      py      :     0.027897
 22 C s       :     2.824256  s :     2.824256
      pz      :     1.024196  p :     3.113982
      px      :     1.051363
      py      :     1.038423
      dz2     :     0.014797  d :     0.090478
      dxz     :     0.022818
      dyz     :     0.015341
      dx2y2   :     0.013034
      dxy     :     0.024488
 23 H s       :     0.901938  s :     0.901938
      pz      :     0.023598  p :     0.060494
      px      :     0.025845
      py      :     0.011051
 24 H s       :     0.904795  s :     0.904795
      pz      :     0.019105  p :     0.077478
      px      :     0.027739
      py      :     0.030634
 25 C s       :     2.830558  s :     2.830558
      pz      :     1.035463  p :     3.118256
      px      :     1.054101
      py      :     1.028692
      dz2     :     0.013489  d :     0.091345
      dxz     :     0.027187
      dyz     :     0.016641
      dx2y2   :     0.012595
      dxy     :     0.021434
 26 H s       :     0.909668  s :     0.909668
      pz      :     0.026575  p :     0.068628
      px      :     0.026853
      py      :     0.015200
 27 H s       :     0.911350  s :     0.911350
      pz      :     0.018993  p :     0.065429
      px      :     0.024938
      py      :     0.021498
 28 C s       :     2.813135  s :     2.813135
      pz      :     1.036315  p :     3.168255
      px      :     1.085678
      py      :     1.046262
      dz2     :     0.011786  d :     0.074602
      dxz     :     0.018915
      dyz     :     0.020383
      dx2y2   :     0.004400
      dxy     :     0.019118
 29 H s       :     0.906515  s :     0.906515
      pz      :     0.028079  p :     0.073990
      px      :     0.026137
      py      :     0.019773
 30 H s       :     0.903076  s :     0.903076
      pz      :     0.022227  p :     0.076788
      px      :     0.021488
      py      :     0.033072
 31 H s       :     0.900883  s :     0.900883
      pz      :     0.014620  p :     0.062631
      px      :     0.021974
      py      :     0.026037
 32 H s       :     0.889083  s :     0.889083
      pz      :     0.015354  p :     0.067247
      px      :     0.021986
      py      :     0.029908
 33 H s       :     0.887776  s :     0.887776
      pz      :     0.019359  p :     0.074753
      px      :     0.041570
      py      :     0.013824


                      *****************************
                      * MAYER POPULATION ANALYSIS *
                      *****************************

  NA   - Mulliken gross atomic population
  ZA   - Total nuclear charge
  QA   - Mulliken gross atomic charge
  VA   - Mayer's total valence
  BVA  - Mayer's bonded valence
  FA   - Mayer's free valence

  ATOM       NA         ZA         QA         VA         BVA        FA
  0 S     15.9137    16.0000     0.0863     2.4188     2.4188    -0.0000
  1 C      6.1327     6.0000    -0.1327     3.8282     3.8282     0.0000
  2 C      6.0952     6.0000    -0.0952     4.0693     4.0693    -0.0000
  3 C      5.9587     6.0000     0.0413     3.9233     3.9233    -0.0000
  4 C      6.1447     6.0000    -0.1447     3.9193     3.9193    -0.0000
  5 H      0.9862     1.0000     0.0138     1.0056     1.0056     0.0000
  6 C      5.9554     6.0000     0.0446     3.9770     3.9770    -0.0000
  7 H      0.9786     1.0000     0.0214     0.9857     0.9857     0.0000
  8 H      0.9807     1.0000     0.0193     0.9942     0.9942    -0.0000
  9 C      6.0108     6.0000    -0.0108     4.0716     4.0716    -0.0000
 10 H      0.9749     1.0000     0.0251     0.9866     0.9866    -0.0000
 11 H      1.0029     1.0000    -0.0029     0.9840     0.9840    -0.0000
 12 C      6.0603     6.0000    -0.0603     4.0105     4.0105     0.0000
 13 H      0.9526     1.0000     0.0474     0.9847     0.9847    -0.0000
 14 H      0.9651     1.0000     0.0349     0.9896     0.9896    -0.0000
 15 H      0.9795     1.0000     0.0205     0.9862     0.9862    -0.0000
 16 S     15.9147    16.0000     0.0853     2.4709     2.4709     0.0000
 17 C      6.0868     6.0000    -0.0868     3.8532     3.8532    -0.0000
 18 C      6.0506     6.0000    -0.0506     3.9497     3.9497     0.0000
 19 C      6.0441     6.0000    -0.0441     4.0142     4.0142     0.0000
 20 C      6.1423     6.0000    -0.1423     3.9382     3.9382     0.0000
 21 H      0.9785     1.0000     0.0215     0.9956     0.9956     0.0000
 22 C      5.9381     6.0000     0.0619     3.9718     3.9718     0.0000
 23 H      0.9612     1.0000     0.0388     0.9841     0.9841    -0.0000
 24 H      0.9918     1.0000     0.0082     1.0027     1.0027     0.0000
 25 C      6.0795     6.0000    -0.0795     4.0765     4.0765    -0.0000
 26 H      0.9806     1.0000     0.0194     0.9818     0.9818    -0.0000
 27 H      0.9737     1.0000     0.0263     0.9848     0.9848    -0.0000
 28 C      5.9880     6.0000     0.0120     3.9809     3.9809     0.0000
 29 H      0.9782     1.0000     0.0218     0.9934     0.9934     0.0000
 30 H      0.9850     1.0000     0.0150     0.9995     0.9995    -0.0000
 31 H      0.9563     1.0000     0.0437     0.9850     0.9850     0.0000
 32 H      0.9236     1.0000     0.0764     0.9962     0.9962     0.0000
 33 H      0.9350     1.0000     0.0650     0.9950     0.9950     0.0000

  Mayer bond orders larger than 0.100000
B(  0-S ,  1-C ) :   1.1112 B(  0-S ,  4-C ) :   1.1128 B(  1-C ,  2-C ) :   1.6333 
B(  1-C ,  4-C ) :   0.1013 B(  1-C , 32-H ) :   0.9518 B(  2-C ,  3-C ) :   1.2366 
B(  2-C ,  6-C ) :   1.0497 B(  3-C ,  4-C ) :   1.5918 B(  3-C ,  5-H ) :   0.9811 
B(  4-C , 20-C ) :   1.0564 B(  6-C ,  7-H ) :   0.9244 B(  6-C ,  8-H ) :   0.9374 
B(  6-C ,  9-C ) :   1.0673 B(  9-C , 10-H ) :   0.9458 B(  9-C , 11-H ) :   0.9480 
B(  9-C , 12-C ) :   1.0881 B( 12-C , 13-H ) :   0.9725 B( 12-C , 14-H ) :   0.9717 
B( 12-C , 15-H ) :   0.9743 B( 16-S , 17-C ) :   1.1467 B( 16-S , 20-C ) :   1.1289 
B( 17-C , 18-C ) :   1.6273 B( 17-C , 33-H ) :   0.9679 B( 18-C , 19-C ) :   1.2193 
B( 18-C , 21-H ) :   0.9847 B( 19-C , 20-C ) :   1.6067 B( 19-C , 22-C ) :   1.0415 
B( 22-C , 23-H ) :   0.9375 B( 22-C , 24-H ) :   0.9239 B( 22-C , 25-C ) :   1.0697 
B( 25-C , 26-H ) :   0.9491 B( 25-C , 27-H ) :   0.9555 B( 25-C , 28-C ) :   1.0721 
B( 28-C , 29-H ) :   0.9758 B( 28-C , 30-H ) :   0.9705 B( 28-C , 31-H ) :   0.9742 


-------
TIMINGS
-------

Total SCF time: 0 days 0 hours 0 min 31 sec 

Total time                  ....      31.557 sec
Sum of individual times     ....      30.450 sec  ( 96.5%)

Fock matrix formation       ....      28.441 sec  ( 90.1%)
  XC integration            ....       1.916 sec  (  6.7% of F)
    Basis function eval.    ....       0.243 sec  ( 12.7% of XC)
    Density eval.           ....       0.181 sec  (  9.5% of XC)
    XC-Functional eval.     ....       0.220 sec  ( 11.5% of XC)
    XC-Potential eval.      ....       0.201 sec  ( 10.5% of XC)
Diagonalization             ....       0.137 sec  (  0.4%)
Density matrix formation    ....       0.031 sec  (  0.1%)
Population analysis         ....       0.079 sec  (  0.2%)
Initial guess               ....       0.227 sec  (  0.7%)
Orbital Transformation      ....       0.000 sec  (  0.0%)
Orbital Orthonormalization  ....       0.000 sec  (  0.0%)
DIIS solution               ....       0.150 sec  (  0.5%)
SOSCF solution              ....       0.137 sec  (  0.4%)
Grid generation             ....       1.247 sec  (  4.0%)


-------------------------------------------------------------------------------
                          DFT DISPERSION CORRECTION                            
                                                                               
                              DFTD3 V3.1  Rev 1                                
                              USING zero damping                               
-------------------------------------------------------------------------------
The omegaB97X-D3 functional is recognized. Fit by Chai et al.
Active option DFTDOPT                   ...         3   

molecular C6(AA) [au] = 14186.436416 


            DFT-D V3
 parameters
 s6 scaling factor         :     1.0000 
 rs6 scaling factor        :     1.2810 
 s8 scaling factor         :     1.0000 
 rs8 scaling factor        :     1.0940 
 Damping factor alpha6     :    14.0000 
 Damping factor alpha8     :    16.0000 
 ad hoc parameters k1-k3   :    16.0000     1.3333    -4.0000 

 Edisp/kcal,au: -8.701328836832  -0.013866448665 
 E6   /kcal   :  -3.995421962 
 E8   /kcal   :  -4.705906874 
 % E8         :  54.082623042 

-------------------------   ----------------
Dispersion correction           -0.013866449
-------------------------   ----------------


-------------------------   --------------------
FINAL SINGLE POINT ENERGY     -1339.860695582771
-------------------------   --------------------


                            ***************************************
                            *     ORCA property calculations      *
                            ***************************************

                                    ---------------------
                                    Active property flags
                                    ---------------------
   (+) Dipole Moment


------------------------------------------------------------------------------
                       ORCA ELECTRIC PROPERTIES CALCULATION
------------------------------------------------------------------------------

Dipole Moment Calculation                       ... on
Quadrupole Moment Calculation                   ... off
Polarizability Calculation                      ... off
GBWName                                         ... config_5569.gbw
Electron density file                           ... config_5569.scfp
The origin for moment calculation is the CENTER OF MASS  = (21.980006, -28.432201 168.009652)

-------------
DIPOLE MOMENT
-------------
                                X             Y             Z
Electronic contribution:    -21.63955     -17.41690      17.54289
Nuclear contribution   :     21.96949      17.96490     -17.97498
                        -----------------------------------------
Total Dipole Moment    :      0.32994       0.54801      -0.43209
                        -----------------------------------------
Magnitude (a.u.)       :      0.77193
Magnitude (Debye)      :      1.96208



--------------------
Rotational spectrum 
--------------------
 
Rotational constants in cm-1:     0.017042     0.009261     0.006318 
Rotational constants in MHz :   510.903924   277.643015   189.406490 

 Dipole components along the rotational axes: 
x,y,z [a.u.] :    -0.262228    -0.725775    -0.018899 
x,y,z [Debye]:    -0.666531    -1.844773    -0.048039 

 

Timings for individual modules:

Sum of individual times         ...       32.813 sec (=   0.547 min)
GTO integral calculation        ...        0.844 sec (=   0.014 min)   2.6 %
SCF iterations                  ...       31.969 sec (=   0.533 min)  97.4 %
                             ****ORCA TERMINATED NORMALLY****
TOTAL RUN TIME: 0 days 0 hours 0 minutes 33 seconds 583 msec
