
                                 *****************
                                 * O   R   C   A *
                                 *****************

           --- An Ab Initio, DFT and Semiempirical electronic structure package ---

                  #######################################################
                  #                        -***-                        #
                  #          Department of theory and spectroscopy      #
                  #               Directorship: Frank Neese             #
                  #        Max Planck Institute fuer Kohlenforschung    #
                  #                Kaiser Wilhelm Platz 1               #
                  #                 D-45470 Muelheim/Ruhr               #
                  #                      Germany                        #
                  #                                                     #
                  #                  All rights reserved                #
                  #                        -***-                        #
                  #######################################################


                         Program Version 4.2.1 -  RELEASE  -


 With contributions from (in alphabetic order):
   Daniel Aravena         : Magnetic Suceptibility
   Michael Atanasov       : Ab Initio Ligand Field Theory (pilot matlab implementation)
   Alexander A. Auer      : GIAO ZORA, VPT2
   Ute Becker             : Parallelization
   Giovanni Bistoni       : ED, misc. LED, open-shell LED, HFLD
   Martin Brehm           : Molecular dynamics
   Dmytro Bykov           : SCF Hessian
   Vijay G. Chilkuri      : MRCI spin determinant printing, contributions to CSF-ICE
   Dipayan Datta          : RHF DLPNO-CCSD density
   Achintya Kumar Dutta   : EOM-CC, STEOM-CC
   Dmitry Ganyushin       : Spin-Orbit,Spin-Spin,Magnetic field MRCI
   Miquel Garcia          : C-PCM Hessian, Gaussian charge scheme
   Yang Guo               : DLPNO-NEVPT2, CIM, IAO-localization
   Andreas Hansen         : Spin unrestricted coupled pair/coupled cluster methods
   Benjamin Helmich-Paris : CASSCF linear response (MC-RPA)
   Lee Huntington         : MR-EOM, pCC
   Robert Izsak           : Overlap fitted RIJCOSX, COSX-SCS-MP3, EOM
   Christian Kollmar      : KDIIS, OOCD, Brueckner-CCSD(T), CCSD density
   Simone Kossmann        : Meta GGA functionals, TD-DFT gradient, OOMP2, MP2 Hessian
   Martin Krupicka        : AUTO-CI
   Lucas Lang             : DCDCAS
   Dagmar Lenk            : GEPOL surface, SMD
   Dimitrios Liakos       : Extrapolation schemes; Compound Job, initial MDCI parallelization
   Dimitrios Manganas     : Further ROCIS development; embedding schemes
   Dimitrios Pantazis     : SARC Basis sets
   Taras Petrenko         : DFT Hessian,TD-DFT gradient, ASA, ECA, R-Raman, ABS, FL, XAS/XES, NRVS
   Peter Pinski           : DLPNO-MP2, DLPNO-MP2 Gradient
   Christoph Reimann      : Effective Core Potentials
   Marius Retegan         : Local ZFS, SOC
   Christoph Riplinger    : Optimizer, TS searches, QM/MM, DLPNO-CCSD(T), (RO)-DLPNO pert. Triples
   Tobias Risthaus        : Range-separated hybrids, TD-DFT gradient, RPA, STAB
   Michael Roemelt        : Original ROCIS implementation
   Masaaki Saitow         : Open-shell DLPNO-CCSD energy and density
   Barbara Sandhoefer     : DKH picture change effects
   Avijit Sen             : IP-ROCIS
   Kantharuban Sivalingam : CASSCF convergence, NEVPT2, FIC-MRCI
   Bernardo de Souza      : ESD, SOC TD-DFT
   Georgi Stoychev        : AutoAux, RI-MP2 NMR
   Willem Van den Heuvel  : Paramagnetic NMR
   Boris Wezisla          : Elementary symmetry handling
   Frank Wennmohs         : Technical directorship


 We gratefully acknowledge several colleagues who have allowed us to
 interface, adapt or use parts of their codes:
   Stefan Grimme, W. Hujo, H. Kruse,             : VdW corrections, initial TS optimization,
                  C. Bannwarth                     DFT functionals, gCP, sTDA/sTD-DF
   Ed Valeev, F. Pavosevic, A. Kumar             : LibInt (2-el integral package), F12 methods
   Garnet Chan, S. Sharma, J. Yang, R. Olivares  : DMRG
   Ulf Ekstrom                                   : XCFun DFT Library
   Mihaly Kallay                                 : mrcc  (arbitrary order and MRCC methods)
   Andreas Klamt, Michael Diedenhofen            : otool_cosmo (COSMO solvation model)
   Jiri Pittner, Ondrej Demel                    : Mk-CCSD
   Frank Weinhold                                : gennbo (NPA and NBO analysis)
   Christopher J. Cramer and Donald G. Truhlar   : smd solvation model
   Lars Goerigk                                  : TD-DFT with DH, B97 family of functionals
   V. Asgeirsson, H. Jonsson                     : NEB implementation
   FAccTs GmbH                                   : IRC, NEB, NEB-TS, Multilevel, MM, QM/MM, CI optimization
   S Lehtola, MJT Oliveira, MAL Marques          : LibXC Library


 Your calculation uses the libint2 library for the computation of 2-el integrals
 For citations please refer to: http://libint.valeyev.net

 Your ORCA version has been built with support for libXC version: 4.2.3
 For citations please refer to: https://tddft.org/programs/libxc/

 This ORCA versions uses:
   CBLAS   interface :  Fast vector & matrix operations
   LAPACKE interface :  Fast linear algebra routines
   SCALAPACK package :  Parallel linear algebra routines


Your calculation utilizes the atom-pairwise dispersion correction
with the zero-damping scheme (D30)
Cite in your paper:
S.Grimme, J.Antony, S.Ehrlich and H.Krieg, J.Chem.Phys., 132, (2010), 154104 
   

XCFun DFT library Copyright 2009-2010 Ulf Ekstrom and contributors.
See http://admol.org/xcfun for more information. This is free soft-
ware; see the source code for copying conditions. There is ABSOLUTELY
NO WARRANTY; not even for MERCHANTABILITY or FITNESS FOR A PARTICULAR
PURPOSE. For details see the documentation. Scientific users of this 
library should cite U. Ekstrom, L. Visscher, R. Bast, A. J. Thorvald-
sen and K. Ruud; J.Chem.Theor.Comp. 2010, DOI: 10.1021/ct100117s
XCFun Version 0.99 
----- Orbital basis set information -----
Your calculation utilizes the basis: def2-SVP
   F. Weigend and R. Ahlrichs, Phys. Chem. Chem. Phys. 7, 3297 (2005).

================================================================================
                                        WARNINGS
                       Please study these warnings very carefully!
================================================================================


INFO   : the flag for use of LIBINT has been found!

================================================================================
                                       INPUT FILE
================================================================================
NAME = config_8113.inp
|  1> ! wB97X-D3 SP def2-SVP
|  2> %pal
|  3> nprocs 16
|  4> end
|  5> 
|  6> * xyz 0 1
|  7> S 	 -73.1013 	 40.5664 	 122.847 	 
|  8> C 	 -73.8356 	 40.2492 	 124.359 	 
|  9> C 	 -73.8458 	 38.8887 	 124.674 	 
| 10> C 	 -72.9463 	 38.2069 	 123.868 	 
| 11> C 	 -72.4515 	 38.9434 	 122.81 	 
| 12> H 	 -72.5659 	 37.211 	 123.921 	 
| 13> C 	 -74.4268 	 38.314 	 125.989 	 
| 14> H 	 -74.5526 	 37.2345 	 125.829 	 
| 15> H 	 -75.5235 	 38.6465 	 126.02 	 
| 16> C 	 -73.5658 	 38.724 	 127.186 	 
| 17> H 	 -72.6931 	 38.0607 	 127.342 	 
| 18> H 	 -73.183 	 39.7204 	 127.134 	 
| 19> C 	 -74.2472 	 38.827 	 128.51 	 
| 20> H 	 -75.032 	 38.0971 	 128.72 	 
| 21> H 	 -73.6503 	 38.8782 	 129.385 	 
| 22> H 	 -74.7291 	 39.7978 	 128.501 	 
| 23> S 	 -70.122 	 39.6493 	 121.609 	 
| 24> C 	 -69.5694 	 38.7433 	 120.198 	 
| 25> C 	 -70.2146 	 37.5702 	 120.076 	 
| 26> C 	 -71.3148 	 37.4755 	 120.975 	 
| 27> C 	 -71.4569 	 38.5853 	 121.788 	 
| 28> H 	 -69.8223 	 36.7696 	 119.472 	 
| 29> C 	 -72.2062 	 36.2376 	 120.851 	 
| 30> H 	 -72.5543 	 35.979 	 121.879 	 
| 31> H 	 -71.6098 	 35.4057 	 120.526 	 
| 32> C 	 -73.3957 	 36.3849 	 119.931 	 
| 33> H 	 -72.9946 	 36.5964 	 118.963 	 
| 34> H 	 -74.0394 	 37.1711 	 120.23 	 
| 35> C 	 -74.1549 	 35.1144 	 119.821 	 
| 36> H 	 -73.6064 	 34.3861 	 119.35 	 
| 37> H 	 -75.1836 	 35.2753 	 119.322 	 
| 38> H 	 -74.4452 	 34.7312 	 120.786 	 
| 39> H 	 -74.4603 	 41.1112 	 124.734 	 
| 40> H 	 -68.7417 	 39.0177 	 119.622 	 
| 41> *
| 42> 
| 43>                          ****END OF INPUT****
================================================================================

                       ****************************
                       * Single Point Calculation *
                       ****************************

---------------------------------
CARTESIAN COORDINATES (ANGSTROEM)
---------------------------------
  S    -73.101300   40.566400  122.847000
  C    -73.835600   40.249200  124.359000
  C    -73.845800   38.888700  124.674000
  C    -72.946300   38.206900  123.868000
  C    -72.451500   38.943400  122.810000
  H    -72.565900   37.211000  123.921000
  C    -74.426800   38.314000  125.989000
  H    -74.552600   37.234500  125.829000
  H    -75.523500   38.646500  126.020000
  C    -73.565800   38.724000  127.186000
  H    -72.693100   38.060700  127.342000
  H    -73.183000   39.720400  127.134000
  C    -74.247200   38.827000  128.510000
  H    -75.032000   38.097100  128.720000
  H    -73.650300   38.878200  129.385000
  H    -74.729100   39.797800  128.501000
  S    -70.122000   39.649300  121.609000
  C    -69.569400   38.743300  120.198000
  C    -70.214600   37.570200  120.076000
  C    -71.314800   37.475500  120.975000
  C    -71.456900   38.585300  121.788000
  H    -69.822300   36.769600  119.472000
  C    -72.206200   36.237600  120.851000
  H    -72.554300   35.979000  121.879000
  H    -71.609800   35.405700  120.526000
  C    -73.395700   36.384900  119.931000
  H    -72.994600   36.596400  118.963000
  H    -74.039400   37.171100  120.230000
  C    -74.154900   35.114400  119.821000
  H    -73.606400   34.386100  119.350000
  H    -75.183600   35.275300  119.322000
  H    -74.445200   34.731200  120.786000
  H    -74.460300   41.111200  124.734000
  H    -68.741700   39.017700  119.622000

----------------------------
CARTESIAN COORDINATES (A.U.)
----------------------------
  NO LB      ZA    FRAG     MASS         X           Y           Z
   0 S    16.0000    0    32.060  -138.141437   76.659386  232.147186
   1 C     6.0000    0    12.011  -139.529063   76.059965  235.004452
   2 C     6.0000    0    12.011  -139.548338   73.488993  235.599716
   3 C     6.0000    0    12.011  -137.848529   72.200577  234.076597
   4 C     6.0000    0    12.011  -136.913493   73.592361  232.077267
   5 H     1.0000    0     1.008  -137.129678   70.318599  234.176752
   6 C     6.0000    0    12.011  -140.646269   72.402967  238.084706
   7 H     1.0000    0     1.008  -140.883997   70.363008  237.782350
   8 H     1.0000    0     1.008  -142.718732   73.031301  238.143287
   9 C     6.0000    0    12.011  -139.019215   73.177755  240.346708
  10 H     1.0000    0     1.008  -137.370051   71.924299  240.641505
  11 H     1.0000    0     1.008  -138.295828   75.060678  240.248442
  12 C     6.0000    0    12.011  -140.306874   73.372397  242.848705
  13 H     1.0000    0     1.008  -141.789931   71.993085  243.245548
  14 H     1.0000    0     1.008  -139.178897   73.469151  244.502216
  15 H     1.0000    0     1.008  -141.217533   75.206943  242.831698
  16 S    16.0000    0    32.060  -132.511376   74.926318  229.807705
  17 C     6.0000    0    12.011  -131.467113   73.214227  227.141302
  18 C     6.0000    0    12.011  -132.686365   70.997389  226.910755
  19 C     6.0000    0    12.011  -134.765441   70.818432  228.609619
  20 C     6.0000    0    12.011  -135.033971   72.915650  230.145966
  21 H     1.0000    0     1.008  -131.945025   69.484474  225.769361
  22 C     6.0000    0    12.011  -136.449943   68.479140  228.375293
  23 H     1.0000    0     1.008  -137.107757   67.990457  230.317931
  24 H     1.0000    0     1.008  -135.322911   66.907077  227.761132
  25 C     6.0000    0    12.011  -138.697772   68.757496  226.636745
  26 H     1.0000    0     1.008  -137.939803   69.157173  224.807490
  27 H     1.0000    0     1.008  -139.914189   70.243199  227.201773
  28 C     6.0000    0    12.011  -140.132452   66.356599  226.428875
  29 H     1.0000    0     1.008  -139.095938   64.980312  225.538814
  30 H     1.0000    0     1.008  -142.076414   66.660656  225.485902
  31 H     1.0000    0     1.008  -140.681040   65.632456  228.252461
  32 H     1.0000    0     1.008  -140.709575   77.688909  235.713100
  33 H     1.0000    0     1.008  -129.902987   73.732767  226.052820

--------------------------------
INTERNAL COORDINATES (ANGSTROEM)
--------------------------------
 S      0   0   0     0.000000000000     0.00000000     0.00000000
 C      1   0   0     1.710542700432     0.00000000     0.00000000
 C      2   1   0     1.396527582971   112.53008183     0.00000000
 C      3   2   1     1.386934565868   110.06510705    16.38086752
 C      4   3   2     1.380805304886   114.54937424   348.62619138
 H      4   3   2     1.067394008790   131.37145306   168.51910381
 C      3   2   1     1.548246133533   123.77531297   179.02591882
 H      7   3   2     1.098519863271   106.50109195   164.34202094
 H      7   3   2     1.146415343582   105.92016191    58.13756418
 C      7   3   2     1.530434578804   110.71634021   291.53085506
 H     10   7   3     1.107207378949   113.14982407   276.19507503
 H     10   7   3     1.068668704510   114.40873744    38.34400082
 C     10   7   3     1.492612126441   117.09297819   152.40687818
 H     13  10   7     1.092137834708   116.90362316    36.40193955
 H     13  10   7     1.060441441099   118.57358301   165.55783452
 H     13  10   7     1.083864036676   104.91673274   278.95522454
 S      5   4   3     2.714270815523   141.74794288   129.68801716
 C     17   5   4     1.765537810414   119.26099232    97.12132045
 C     18  17   5     1.344369982557   111.72145709   344.13242485
 C     19  18  17     1.423941406800   111.81136821     9.84863376
 C     20  19  18     1.383046438121   113.39979086   358.59197864
 H     19  18  17     1.076882375192   121.65441151   198.58493449
 C     20  19  18     1.530479130861   116.91399663   174.82747207
 H     23  20  19     1.115720202381   107.12970149   145.80962333
 H     23  20  19     1.073953243861   109.12368792    31.68461953
 C     23  20  19     1.510962454861   115.40402191   268.35128576
 H     26  23  20     1.068942215463   105.97840899    60.82691745
 H     26  23  20     1.059179460715   112.26650195   301.10326174
 C     26  23  20     1.484134390815   111.36976223   176.97317240
 H     29  26  23     1.026213496306   111.60105175   293.45619025
 H     29  26  23     1.154605343830   111.62306113   167.09813191
 H     29  26  23     1.078119348681   112.06578923    54.22302311
 H      2   1   3     1.128680242584   112.93307105   196.80541922
 H     18  17   5     1.045063945412   123.61692478   173.13123112

---------------------------
INTERNAL COORDINATES (A.U.)
---------------------------
 S      0   0   0     0.000000000000     0.00000000     0.00000000
 C      1   0   0     3.232457244194     0.00000000     0.00000000
 C      2   1   0     2.639054670283   112.53008183     0.00000000
 C      3   2   1     2.620926495160   110.06510705    16.38086752
 C      4   3   2     2.609343870499   114.54937424   348.62619138
 H      4   3   2     2.017082353601   131.37145306   168.51910381
 C      3   2   1     2.925761180280   123.77531297   179.02591882
 H      7   3   2     2.075901694254   106.50109195   164.34202094
 H      7   3   2     2.166411035095   105.92016191    58.13756418
 C      7   3   2     2.892102219823   110.71634021   291.53085506
 H     10   7   3     2.092318719671   113.14982407   276.19507503
 H     10   7   3     2.019491179417   114.40873744    38.34400082
 C     10   7   3     2.820628143144   117.09297819   152.40687818
 H     13  10   7     2.063841408091   116.90362316    36.40193955
 H     13  10   7     2.003943904738   118.57358301   165.55783452
 H     13  10   7     2.048206195724   104.91673274   278.95522454
 S      5   4   3     5.129228494634   141.74794288   129.68801716
 C     17   5   4     3.336382940765   119.26099232    97.12132045
 C     18  17   5     2.540491089697   111.72145709   344.13242485
 C     19  18  17     2.690859289603   111.81136821     9.84863376
 C     20  19  18     2.613578998545   113.39979086   358.59197864
 H     19  18  17     2.035012767560   121.65441151   198.58493449
 C     20  19  18     2.892186411008   116.91399663   174.82747207
 H     23  20  19     2.108405624582   107.12970149   145.80962333
 H     23  20  19     2.029477511534   109.12368792    31.68461953
 C     23  20  19     2.855305238325   115.40402191   268.35128576
 H     26  23  20     2.020008040213   105.97840899    60.82691745
 H     26  23  20     2.001559107425   112.26650195   301.10326174
 C     26  23  20     2.804607544575   111.36976223   176.97317240
 H     29  26  23     1.939262462952   111.60105175   293.45619025
 H     29  26  23     2.181887892600   111.62306113   167.09813191
 H     29  26  23     2.037350308688   112.06578923    54.22302311
 H      2   1   3     2.132896551252   112.93307105   196.80541922
 H     18  17   5     1.974884649264   123.61692478   173.13123112

---------------------
BASIS SET INFORMATION
---------------------
There are 3 groups of distinct atoms

 Group   1 Type S   : 10s7p1d contracted to 4s3p1d pattern {5311/511/1}
 Group   2 Type C   : 7s4p1d contracted to 3s2p1d pattern {511/31/1}
 Group   3 Type H   : 4s1p contracted to 2s1p pattern {31/1}

Atom   0S    basis set group =>   1
Atom   1C    basis set group =>   2
Atom   2C    basis set group =>   2
Atom   3C    basis set group =>   2
Atom   4C    basis set group =>   2
Atom   5H    basis set group =>   3
Atom   6C    basis set group =>   2
Atom   7H    basis set group =>   3
Atom   8H    basis set group =>   3
Atom   9C    basis set group =>   2
Atom  10H    basis set group =>   3
Atom  11H    basis set group =>   3
Atom  12C    basis set group =>   2
Atom  13H    basis set group =>   3
Atom  14H    basis set group =>   3
Atom  15H    basis set group =>   3
Atom  16S    basis set group =>   1
Atom  17C    basis set group =>   2
Atom  18C    basis set group =>   2
Atom  19C    basis set group =>   2
Atom  20C    basis set group =>   2
Atom  21H    basis set group =>   3
Atom  22C    basis set group =>   2
Atom  23H    basis set group =>   3
Atom  24H    basis set group =>   3
Atom  25C    basis set group =>   2
Atom  26H    basis set group =>   3
Atom  27H    basis set group =>   3
Atom  28C    basis set group =>   2
Atom  29H    basis set group =>   3
Atom  30H    basis set group =>   3
Atom  31H    basis set group =>   3
Atom  32H    basis set group =>   3
Atom  33H    basis set group =>   3


           ************************************************************
           *        Program running with 16 parallel MPI-processes    *
           *              working on a common directory               *
           ************************************************************
------------------------------------------------------------------------------
                           ORCA GTO INTEGRAL CALCULATION
------------------------------------------------------------------------------

                         BASIS SET STATISTICS AND STARTUP INFO

 # of primitive gaussian shells          ...  294
 # of primitive gaussian functions       ...  534
 # of contracted shells                  ...  154
 # of contracted basis functions         ...  322
 Highest angular momentum                ...    2
 Maximum contraction depth               ...    5
 Integral package used                   ... LIBINT
 Integral threshhold            Thresh   ...  1.000e-10
 Primitive cut-off              TCut     ...  1.000e-11


------------------------------ INTEGRAL EVALUATION ----------------------------


 * One electron integrals 
 Pre-screening matrix                    ... done
 Shell pair data                         ... done (   0.003 sec)



           ************************************************************
           *        Program running with 16 parallel MPI-processes    *
           *              working on a common directory               *
           ************************************************************
-------------------------------------------------------------------------------
                                 ORCA SCF
-------------------------------------------------------------------------------

------------
SCF SETTINGS
------------
Hamiltonian:
 Density Functional     Method          .... DFT(GTOs)
 Exchange Functional    Exchange        .... WB97X-D3
 Correlation Functional Correlation     .... WB97X-D3
 Gradients option       PostSCFGGA      .... off
 Hybrid DFT is turned on
   Fraction HF Exchange ScalHFX         ....  0.195728
   Scaling of DF-GGA-X  ScalDFX         ....  0.000000
   Scaling of DF-GGA-C  ScalDFC         ....  1.000000
   Scaling of DF-LDA-C  ScalLDAC        ....  1.000000
   Perturbative correction              ....  0.000000
   Density functional embedding theory  .... OFF
 Long-range corrected/Screened/Range-Separated Hybrid DFT is turned on
   Amount of maximum screened exact exchange              ....  0.804272
   Range separation parameter mu (erf(mu*r12)/r12)        ....  0.250000


General Settings:
 Integral files         IntName         .... config_8113
 Hartree-Fock type      HFTyp           .... RHF
 Total Charge           Charge          ....    0
 Multiplicity           Mult            ....    1
 Number of Electrons    NEL             ....  134
 Basis Dimension        Dim             ....  322
 Nuclear Repulsion      ENuc            ....   1277.3684390677 Eh

Convergence Acceleration:
 DIIS                   CNVDIIS         .... on
   Start iteration      DIISMaxIt       ....    12
   Startup error        DIISStart       ....  0.200000
   # of expansion vecs  DIISMaxEq       ....     5
   Bias factor          DIISBfac        ....   1.050
   Max. coefficient     DIISMaxC        ....  10.000
 Newton-Raphson         CNVNR           .... off
 SOSCF                  CNVSOSCF        .... on
   Start iteration      SOSCFMaxIt      ....   150
   Startup grad/error   SOSCFStart      ....  0.003300
 Level Shifting         CNVShift        .... on
   Level shift para.    LevelShift      ....    0.2500
   Turn off err/grad.   ShiftErr        ....    0.0010
 Zerner damping         CNVZerner       .... off
 Static damping         CNVDamp         .... on
   Fraction old density DampFac         ....    0.7000
   Max. Damping (<1)    DampMax         ....    0.9800
   Min. Damping (>=0)   DampMin         ....    0.0000
   Turn off err/grad.   DampErr         ....    0.1000
 Fernandez-Rico         CNVRico         .... off

SCF Procedure:
 Maximum # iterations   MaxIter         ....   125
 SCF integral mode      SCFMode         .... Direct
   Integral package                     .... LIBINT
 Reset frequency        DirectResetFreq ....    20
 Integral Threshold     Thresh          ....  1.000e-10 Eh
 Primitive CutOff       TCut            ....  1.000e-11 Eh

Convergence Tolerance:
 Convergence Check Mode ConvCheckMode   .... Total+1el-Energy
 Convergence forced     ConvForced      .... 0
 Energy Change          TolE            ....  1.000e-06 Eh
 1-El. energy change                    ....  1.000e-03 Eh
 Orbital Gradient       TolG            ....  5.000e-05
 Orbital Rotation angle TolX            ....  5.000e-05
 DIIS Error             TolErr          ....  1.000e-06


Diagonalization of the overlap matrix:
Smallest eigenvalue                        ... 5.933e-04
Time for diagonalization                   ...    0.016 sec
Threshold for overlap eigenvalues          ... 1.000e-08
Number of eigenvalues below threshold      ... 0
Time for construction of square roots      ...    0.023 sec
Total time needed                          ...    0.040 sec

-------------------
DFT GRID GENERATION
-------------------

General Integration Accuracy     IntAcc      ...  4.340
Radial Grid Type                 RadialGrid  ... Gauss-Chebyshev
Angular Grid (max. acc.)         AngularGrid ... Lebedev-110
Angular grid pruning method      GridPruning ... 3 (G Style)
Weight generation scheme         WeightScheme... Becke
Basis function cutoff            BFCut       ...    1.0000e-10
Integration weight cutoff        WCut        ...    1.0000e-14
Grids for H and He will be reduced by one unit

# of grid points (after initial pruning)     ...  41088 (   0.0 sec)
# of grid points (after weights+screening)   ...  37116 (   0.0 sec)
nearest neighbour list constructed           ...    0.0 sec
Grid point re-assignment to atoms done       ...    0.0 sec
Grid point division into batches done        ...    0.0 sec
Reduced shell lists constructed in    0.1 sec

Total number of grid points                  ...    37116
Total number of batches                      ...      597
Average number of points per batch           ...       62
Average number of grid points per atom       ...     1092
Average number of shells per batch           ...    78.33 (50.87%)
Average number of basis functions per batch  ...   155.00 (48.14%)
Average number of large shells per batch     ...    49.41 (63.08%)
Average number of large basis fcns per batch ...   102.49 (66.12%)
Maximum spatial batch extension              ...  18.85, 16.38, 11.55 au
Average spatial batch extension              ...   0.24,  0.24,  0.19 au

Time for grid setup =    0.168 sec

------------------------------
INITIAL GUESS: MODEL POTENTIAL
------------------------------
Loading Hartree-Fock densities                     ... done
Calculating cut-offs                               ... done
Setting up the integral package                    ... done
Initializing the effective Hamiltonian             ... done
Starting the Coulomb interaction                   ... done (   0.0 sec)
Reading the grid                                   ... done
Mapping shells                                     ... done
Starting the XC term evaluation                    ... done (   0.0 sec)
  promolecular density results
     # of electrons  =    133.982186788
     EX              =   -126.793240808
     EC              =     -4.628276889
     EX+EC           =   -131.421517697
Transforming the Hamiltonian                       ... done (   0.0 sec)
Diagonalizing the Hamiltonian                      ... done (   0.0 sec)
Back transforming the eigenvectors                 ... done (   0.0 sec)
Now organizing SCF variables                       ... done
                      ------------------
                      INITIAL GUESS DONE (   0.4 sec)
                      ------------------
--------------
SCF ITERATIONS
--------------
ITER       Energy         Delta-E        Max-DP      RMS-DP      [F,P]     Damp
               ***  Starting incremental Fock matrix formation  ***
  0  -1339.3779347872   0.000000000000 0.06781422  0.00167169  0.1721521 0.7000
  1  -1339.5804699849  -0.202535197719 0.04535630  0.00121163  0.1038788 0.7000
                               ***Turning on DIIS***
  2  -1339.6781902086  -0.097720223659 0.08051825  0.00226483  0.0536414 0.0000
  3  -1339.8249513610  -0.146761152442 0.04350507  0.00103413  0.0391603 0.0000
  4  -1339.8569929377  -0.032041576638 0.00831490  0.00021246  0.0084393 0.0000
                      *** Initiating the SOSCF procedure ***
                           *** Shutting down DIIS ***
                      *** Re-Reading the Fockian *** 
                      *** Removing any level shift *** 
ITER      Energy       Delta-E        Grad      Rot      Max-DP    RMS-DP
  5  -1339.85801748  -0.0010245406  0.001570  0.001570  0.003467  0.000107
               *** Restarting incremental Fock matrix formation ***
  6  -1339.85822476  -0.0002072863  0.001186  0.003273  0.001972  0.000069
  7  -1339.85829363  -0.0000688625  0.000810  0.004740  0.002407  0.000070
  8  -1339.85831186  -0.0000182312  0.000389  0.000956  0.000890  0.000022
  9  -1339.85831724  -0.0000053780  0.000167  0.000421  0.000334  0.000010
 10  -1339.85831775  -0.0000005118  0.000075  0.000210  0.000158  0.000004
                 **** Energy Check signals convergence ****
              ***Rediagonalizing the Fockian in SOSCF/NRSCF***

               *****************************************************
               *                     SUCCESS                       *
               *           SCF CONVERGED AFTER  11 CYCLES          *
               *****************************************************

Setting up the final grid:

General Integration Accuracy     IntAcc      ...  4.670
Radial Grid Type                 RadialGrid  ... Gauss-Chebyshev
Angular Grid (max. acc.)         AngularGrid ... Lebedev-302
Angular grid pruning method      GridPruning ... 3 (G Style)
Weight generation scheme         WeightScheme... Becke
Basis function cutoff            BFCut       ...    1.0000e-10
Integration weight cutoff        WCut        ...    1.0000e-14
Grids for H and He will be reduced by one unit

# of grid points (after initial pruning)     ... 161752 (   0.0 sec)
# of grid points (after weights+screening)   ... 143288 (   0.2 sec)
nearest neighbour list constructed           ...    0.0 sec
Grid point re-assignment to atoms done       ...    0.0 sec
Grid point division into batches done        ...    0.5 sec
Reduced shell lists constructed in    0.6 sec

Total number of grid points                  ...   143288
Total number of batches                      ...     2257
Average number of points per batch           ...       63
Average number of grid points per atom       ...     4214
Average number of shells per batch           ...    72.52 (47.09%)
Average number of basis functions per batch  ...   143.16 (44.46%)
Average number of large shells per batch     ...    44.89 (61.90%)
Average number of large basis fcns per batch ...    92.48 (64.60%)
Maximum spatial batch extension              ...  17.51, 14.14, 11.09 au
Average spatial batch extension              ...   0.14,  0.13,  0.13 au

Final grid set up in    1.2 sec
Final integration                            ... done (   0.6 sec)
Change in XC energy                          ...     0.006488346
Integrated number of electrons               ...   133.999945654
Previous integrated no of electrons          ...   133.995298920

----------------
TOTAL SCF ENERGY
----------------

Total Energy       :        -1339.85182969 Eh          -36459.22184 eV

Components:
Nuclear Repulsion  :         1277.36843907 Eh           34758.96234 eV
Electronic Energy  :        -2617.22026875 Eh          -71218.18418 eV
One Electron Energy:        -4371.34632069 Eh         -118950.38071 eV
Two Electron Energy:         1754.12605193 Eh           47732.19653 eV

Virial components:
Potential Energy   :        -2671.94545432 Eh          -72707.33218 eV
Kinetic Energy     :         1332.09362464 Eh           36248.11034 eV
Virial Ratio       :            2.00582407


DFT components:
N(Alpha)           :       66.999972827151 electrons
N(Beta)            :       66.999972827151 electrons
N(Total)           :      133.999945654303 electrons
E(XC)              :      -94.361059157405 Eh       
DFET-embed. en.    :        0.000000000000 Eh       

---------------
SCF CONVERGENCE
---------------

  Last Energy change         ...   -2.8523e-07  Tolerance :   1.0000e-06
  Last MAX-Density change    ...    4.0172e-05  Tolerance :   1.0000e-05
  Last RMS-Density change    ...    7.0401e-07  Tolerance :   1.0000e-06
  Last Orbital Gradient      ...    6.6613e-06  Tolerance :   5.0000e-05
  Last Orbital Rotation      ...    1.8227e-05  Tolerance :   5.0000e-05

             **** THE GBW FILE WAS UPDATED (config_8113.gbw) ****
             **** DENSITY FILE WAS UPDATED (config_8113.scfp) ****
             **** ENERGY FILE WAS UPDATED (config_8113.en.tmp) ****
             **** THE GBW FILE WAS UPDATED (config_8113.gbw) ****
             **** DENSITY FILE WAS UPDATED (config_8113.scfp) ****
----------------
ORBITAL ENERGIES
----------------

  NO   OCC          E(Eh)            E(eV) 
   0   2.0000     -88.964544     -2420.8483 
   1   2.0000     -88.962456     -2420.7915 
   2   2.0000     -10.324522      -280.9445 
   3   2.0000     -10.322533      -280.8904 
   4   2.0000     -10.315259      -280.6925 
   5   2.0000     -10.308522      -280.5092 
   6   2.0000     -10.302922      -280.3568 
   7   2.0000     -10.302529      -280.3461 
   8   2.0000     -10.298222      -280.2289 
   9   2.0000     -10.289165      -279.9824 
  10   2.0000     -10.288338      -279.9599 
  11   2.0000     -10.287121      -279.9268 
  12   2.0000     -10.283250      -279.8214 
  13   2.0000     -10.271689      -279.5069 
  14   2.0000     -10.269840      -279.4566 
  15   2.0000     -10.268366      -279.4164 
  16   2.0000      -8.080221      -219.8740 
  17   2.0000      -8.077786      -219.8077 
  18   2.0000      -6.038342      -164.3116 
  19   2.0000      -6.036259      -164.2550 
  20   2.0000      -6.034562      -164.2088 
  21   2.0000      -6.032307      -164.1474 
  22   2.0000      -6.031373      -164.1220 
  23   2.0000      -6.028446      -164.0423 
  24   2.0000      -1.012133       -27.5415 
  25   2.0000      -0.990785       -26.9606 
  26   2.0000      -0.916280       -24.9332 
  27   2.0000      -0.911889       -24.8137 
  28   2.0000      -0.872085       -23.7306 
  29   2.0000      -0.857624       -23.3371 
  30   2.0000      -0.850715       -23.1491 
  31   2.0000      -0.817641       -22.2491 
  32   2.0000      -0.781308       -21.2605 
  33   2.0000      -0.768306       -20.9067 
  34   2.0000      -0.702786       -19.1238 
  35   2.0000      -0.699558       -19.0359 
  36   2.0000      -0.690351       -18.7854 
  37   2.0000      -0.667615       -18.1667 
  38   2.0000      -0.647951       -17.6316 
  39   2.0000      -0.617810       -16.8115 
  40   2.0000      -0.596284       -16.2257 
  41   2.0000      -0.577805       -15.7229 
  42   2.0000      -0.572510       -15.5788 
  43   2.0000      -0.554244       -15.0817 
  44   2.0000      -0.533040       -14.5048 
  45   2.0000      -0.522820       -14.2266 
  46   2.0000      -0.518582       -14.1113 
  47   2.0000      -0.512906       -13.9569 
  48   2.0000      -0.508579       -13.8391 
  49   2.0000      -0.501717       -13.6524 
  50   2.0000      -0.487685       -13.2706 
  51   2.0000      -0.481528       -13.1030 
  52   2.0000      -0.474533       -12.9127 
  53   2.0000      -0.460530       -12.5316 
  54   2.0000      -0.457931       -12.4609 
  55   2.0000      -0.451194       -12.2776 
  56   2.0000      -0.441556       -12.0153 
  57   2.0000      -0.437647       -11.9090 
  58   2.0000      -0.429892       -11.6980 
  59   2.0000      -0.423497       -11.5239 
  60   2.0000      -0.420170       -11.4334 
  61   2.0000      -0.417086       -11.3495 
  62   2.0000      -0.410379       -11.1670 
  63   2.0000      -0.348219        -9.4755 
  64   2.0000      -0.333243        -9.0680 
  65   2.0000      -0.328960        -8.9515 
  66   2.0000      -0.290188        -7.8964 
  67   0.0000       0.029320         0.7978 
  68   0.0000       0.072660         1.9772 
  69   0.0000       0.107210         2.9173 
  70   0.0000       0.117205         3.1893 
  71   0.0000       0.142997         3.8911 
  72   0.0000       0.149019         4.0550 
  73   0.0000       0.157010         4.2725 
  74   0.0000       0.159068         4.3285 
  75   0.0000       0.164754         4.4832 
  76   0.0000       0.172365         4.6903 
  77   0.0000       0.175437         4.7739 
  78   0.0000       0.182761         4.9732 
  79   0.0000       0.195939         5.3318 
  80   0.0000       0.199478         5.4281 
  81   0.0000       0.208809         5.6820 
  82   0.0000       0.211937         5.7671 
  83   0.0000       0.220738         6.0066 
  84   0.0000       0.224127         6.0988 
  85   0.0000       0.226383         6.1602 
  86   0.0000       0.235000         6.3947 
  87   0.0000       0.236343         6.4312 
  88   0.0000       0.247421         6.7327 
  89   0.0000       0.256082         6.9684 
  90   0.0000       0.261467         7.1149 
  91   0.0000       0.264581         7.1996 
  92   0.0000       0.287114         7.8128 
  93   0.0000       0.304770         8.2932 
  94   0.0000       0.321875         8.7587 
  95   0.0000       0.333387         9.0719 
  96   0.0000       0.337925         9.1954 
  97   0.0000       0.339335         9.2338 
  98   0.0000       0.345039         9.3890 
  99   0.0000       0.364330         9.9139 
 100   0.0000       0.374351        10.1866 
 101   0.0000       0.400262        10.8917 
 102   0.0000       0.414111        11.2685 
 103   0.0000       0.421337        11.4652 
 104   0.0000       0.441234        12.0066 
 105   0.0000       0.442473        12.0403 
 106   0.0000       0.454314        12.3625 
 107   0.0000       0.476423        12.9641 
 108   0.0000       0.487410        13.2631 
 109   0.0000       0.498618        13.5681 
 110   0.0000       0.504690        13.7333 
 111   0.0000       0.508980        13.8501 
 112   0.0000       0.519213        14.1285 
 113   0.0000       0.524488        14.2720 
 114   0.0000       0.533931        14.5290 
 115   0.0000       0.536267        14.5926 
 116   0.0000       0.541785        14.7427 
 117   0.0000       0.545349        14.8397 
 118   0.0000       0.561565        15.2810 
 119   0.0000       0.572150        15.5690 
 120   0.0000       0.577627        15.7180 
 121   0.0000       0.587842        15.9960 
 122   0.0000       0.594693        16.1824 
 123   0.0000       0.605428        16.4745 
 124   0.0000       0.608495        16.5580 
 125   0.0000       0.616512        16.7762 
 126   0.0000       0.634422        17.2635 
 127   0.0000       0.641476        17.4554 
 128   0.0000       0.650163        17.6918 
 129   0.0000       0.667214        18.1558 
 130   0.0000       0.676268        18.4022 
 131   0.0000       0.689108        18.7516 
 132   0.0000       0.700378        19.0583 
 133   0.0000       0.701324        19.0840 
 134   0.0000       0.707989        19.2653 
 135   0.0000       0.714951        19.4548 
 136   0.0000       0.723628        19.6909 
 137   0.0000       0.729800        19.8589 
 138   0.0000       0.733007        19.9461 
 139   0.0000       0.738628        20.0991 
 140   0.0000       0.740236        20.1429 
 141   0.0000       0.751981        20.4625 
 142   0.0000       0.757192        20.6042 
 143   0.0000       0.761582        20.7237 
 144   0.0000       0.764366        20.7995 
 145   0.0000       0.773985        21.0612 
 146   0.0000       0.780036        21.2259 
 147   0.0000       0.781146        21.2561 
 148   0.0000       0.781627        21.2692 
 149   0.0000       0.786787        21.4096 
 150   0.0000       0.790249        21.5038 
 151   0.0000       0.797098        21.6901 
 152   0.0000       0.798121        21.7180 
 153   0.0000       0.804737        21.8980 
 154   0.0000       0.809199        22.0194 
 155   0.0000       0.812451        22.1079 
 156   0.0000       0.816009        22.2047 
 157   0.0000       0.822027        22.3685 
 158   0.0000       0.823370        22.4050 
 159   0.0000       0.830252        22.5923 
 160   0.0000       0.833609        22.6836 
 161   0.0000       0.841550        22.8997 
 162   0.0000       0.845480        23.0067 
 163   0.0000       0.852351        23.1936 
 164   0.0000       0.852620        23.2010 
 165   0.0000       0.856831        23.3156 
 166   0.0000       0.876942        23.8628 
 167   0.0000       0.890234        24.2245 
 168   0.0000       0.904403        24.6101 
 169   0.0000       0.910954        24.7883 
 170   0.0000       0.920242        25.0411 
 171   0.0000       0.935390        25.4533 
 172   0.0000       0.937244        25.5037 
 173   0.0000       0.955312        25.9954 
 174   0.0000       0.959433        26.1075 
 175   0.0000       0.976730        26.5782 
 176   0.0000       0.982847        26.7446 
 177   0.0000       1.010114        27.4866 
 178   0.0000       1.022873        27.8338 
 179   0.0000       1.036860        28.2144 
 180   0.0000       1.056419        28.7466 
 181   0.0000       1.068802        29.0836 
 182   0.0000       1.087295        29.5868 
 183   0.0000       1.101691        29.9785 
 184   0.0000       1.109912        30.2022 
 185   0.0000       1.121419        30.5154 
 186   0.0000       1.134847        30.8808 
 187   0.0000       1.139788        31.0152 
 188   0.0000       1.177182        32.0328 
 189   0.0000       1.191681        32.4273 
 190   0.0000       1.212796        33.0019 
 191   0.0000       1.240487        33.7554 
 192   0.0000       1.248701        33.9789 
 193   0.0000       1.267954        34.5028 
 194   0.0000       1.272403        34.6239 
 195   0.0000       1.289693        35.0943 
 196   0.0000       1.324860        36.0513 
 197   0.0000       1.331965        36.2446 
 198   0.0000       1.342662        36.5357 
 199   0.0000       1.374468        37.4012 
 200   0.0000       1.395852        37.9831 
 201   0.0000       1.404109        38.2077 
 202   0.0000       1.422764        38.7154 
 203   0.0000       1.433869        39.0176 
 204   0.0000       1.465154        39.8689 
 205   0.0000       1.477923        40.2163 
 206   0.0000       1.485416        40.4202 
 207   0.0000       1.541529        41.9471 
 208   0.0000       1.552773        42.2531 
 209   0.0000       1.573419        42.8149 
 210   0.0000       1.593542        43.3625 
 211   0.0000       1.614650        43.9369 
 212   0.0000       1.644660        44.7535 
 213   0.0000       1.652995        44.9803 
 214   0.0000       1.658234        45.1228 
 215   0.0000       1.674238        45.5583 
 216   0.0000       1.685055        45.8527 
 217   0.0000       1.690767        46.0081 
 218   0.0000       1.750228        47.6261 
 219   0.0000       1.783456        48.5303 
 220   0.0000       1.792692        48.7816 
 221   0.0000       1.800880        49.0044 
 222   0.0000       1.811564        49.2952 
 223   0.0000       1.821687        49.5706 
 224   0.0000       1.830013        49.7972 
 225   0.0000       1.837595        50.0035 
 226   0.0000       1.848334        50.2957 
 227   0.0000       1.850998        50.3682 
 228   0.0000       1.867149        50.8077 
 229   0.0000       1.875722        51.0410 
 230   0.0000       1.881507        51.1984 
 231   0.0000       1.893032        51.5120 
 232   0.0000       1.895362        51.5754 
 233   0.0000       1.904736        51.8305 
 234   0.0000       1.914336        52.0917 
 235   0.0000       1.917782        52.1855 
 236   0.0000       1.925431        52.3936 
 237   0.0000       1.935916        52.6789 
 238   0.0000       1.941763        52.8381 
 239   0.0000       1.947269        52.9879 
 240   0.0000       1.953216        53.1497 
 241   0.0000       1.968297        53.5601 
 242   0.0000       1.971507        53.6474 
 243   0.0000       1.985740        54.0347 
 244   0.0000       1.995265        54.2939 
 245   0.0000       2.003226        54.5106 
 246   0.0000       2.005364        54.5687 
 247   0.0000       2.016380        54.8685 
 248   0.0000       2.022707        55.0407 
 249   0.0000       2.030488        55.2524 
 250   0.0000       2.045802        55.6691 
 251   0.0000       2.052534        55.8523 
 252   0.0000       2.065929        56.2168 
 253   0.0000       2.082921        56.6792 
 254   0.0000       2.092405        56.9372 
 255   0.0000       2.106617        57.3240 
 256   0.0000       2.120392        57.6988 
 257   0.0000       2.125773        57.8452 
 258   0.0000       2.130579        57.9760 
 259   0.0000       2.168191        58.9995 
 260   0.0000       2.172848        59.1262 
 261   0.0000       2.190705        59.6121 
 262   0.0000       2.208651        60.1004 
 263   0.0000       2.220986        60.4361 
 264   0.0000       2.234703        60.8094 
 265   0.0000       2.241264        60.9879 
 266   0.0000       2.255402        61.3726 
 267   0.0000       2.281223        62.0752 
 268   0.0000       2.304055        62.6965 
 269   0.0000       2.320805        63.1523 
 270   0.0000       2.330505        63.4163 
 271   0.0000       2.368479        64.4496 
 272   0.0000       2.384044        64.8731 
 273   0.0000       2.408035        65.5260 
 274   0.0000       2.421124        65.8821 
 275   0.0000       2.430772        66.1447 
 276   0.0000       2.442999        66.4774 
 277   0.0000       2.456244        66.8378 
 278   0.0000       2.465786        67.0975 
 279   0.0000       2.484574        67.6087 
 280   0.0000       2.505462        68.1771 
 281   0.0000       2.520071        68.5746 
 282   0.0000       2.531776        68.8931 
 283   0.0000       2.551460        69.4288 
 284   0.0000       2.556177        69.5571 
 285   0.0000       2.568236        69.8853 
 286   0.0000       2.581728        70.2524 
 287   0.0000       2.586490        70.3820 
 288   0.0000       2.603105        70.8341 
 289   0.0000       2.626152        71.4612 
 290   0.0000       2.638738        71.8037 
 291   0.0000       2.678629        72.8892 
 292   0.0000       2.694254        73.3144 
 293   0.0000       2.745822        74.7176 
 294   0.0000       2.751817        74.8807 
 295   0.0000       2.757260        75.0288 
 296   0.0000       2.775893        75.5359 
 297   0.0000       2.797658        76.1281 
 298   0.0000       2.809566        76.4522 
 299   0.0000       2.834784        77.1384 
 300   0.0000       2.840918        77.3053 
 301   0.0000       2.866979        78.0145 
 302   0.0000       2.898790        78.8801 
 303   0.0000       2.915357        79.3309 
 304   0.0000       2.928774        79.6960 
 305   0.0000       2.961737        80.5930 
 306   0.0000       3.011401        81.9444 
 307   0.0000       3.025991        82.3414 
 308   0.0000       3.041179        82.7547 
 309   0.0000       3.071294        83.5742 
 310   0.0000       3.088902        84.0533 
 311   0.0000       3.101036        84.3835 
 312   0.0000       3.135464        85.3203 
 313   0.0000       3.137815        85.3843 
 314   0.0000       3.168501        86.2193 
 315   0.0000       3.194914        86.9380 
 316   0.0000       3.203293        87.1660 
 317   0.0000       3.229668        87.8837 
 318   0.0000       3.240281        88.1725 
 319   0.0000       3.290881        89.5494 
 320   0.0000       3.419133        93.0393 
 321   0.0000       3.478464        94.6538 

                    ********************************
                    * MULLIKEN POPULATION ANALYSIS *
                    ********************************

-----------------------
MULLIKEN ATOMIC CHARGES
-----------------------
   0 S :    0.121310
   1 C :   -0.163044
   2 C :   -0.068856
   3 C :    0.040439
   4 C :   -0.180427
   5 H :    0.003583
   6 C :    0.048335
   7 H :    0.028511
   8 H :    0.039583
   9 C :   -0.031247
  10 H :    0.034570
  11 H :    0.027649
  12 C :   -0.050084
  13 H :    0.025348
  14 H :    0.022528
  15 H :    0.015552
  16 S :    0.106847
  17 C :   -0.064684
  18 C :   -0.028451
  19 C :   -0.034710
  20 C :   -0.155539
  21 H :    0.019925
  22 C :    0.053479
  23 H :    0.007263
  24 H :    0.007708
  25 C :   -0.009443
  26 H :    0.011430
  27 H :    0.025258
  28 C :   -0.022366
  29 H :    0.011426
  30 H :    0.040308
  31 H :    0.011117
  32 H :    0.074956
  33 H :    0.031729
Sum of atomic charges:   -0.0000000

--------------------------------
MULLIKEN REDUCED ORBITAL CHARGES
--------------------------------
  0 S s       :     5.845231  s :     5.845231
      pz      :     3.229527  p :     9.920105
      px      :     3.443485
      py      :     3.247093
      dz2     :     0.034480  d :     0.113355
      dxz     :     0.018467
      dyz     :     0.018378
      dx2y2   :     0.022865
      dxy     :     0.019165
  1 C s       :     3.202126  s :     3.202126
      pz      :     0.903815  p :     2.925405
      px      :     1.044533
      py      :     0.977057
      dz2     :     0.009912  d :     0.035513
      dxz     :     0.005213
      dyz     :     0.006683
      dx2y2   :     0.005123
      dxy     :     0.008581
  2 C s       :     3.079580  s :     3.079580
      pz      :     1.009385  p :     2.944303
      px      :     0.988043
      py      :     0.946875
      dz2     :     0.008979  d :     0.044972
      dxz     :     0.006520
      dyz     :     0.010796
      dx2y2   :     0.009800
      dxy     :     0.008877
  3 C s       :     3.189391  s :     3.189391
      pz      :     0.945474  p :     2.733616
      px      :     0.933683
      py      :     0.854459
      dz2     :     0.009531  d :     0.036554
      dxz     :     0.005430
      dyz     :     0.007968
      dx2y2   :     0.006507
      dxy     :     0.007118
  4 C s       :     3.073179  s :     3.073179
      pz      :     1.029131  p :     3.062345
      px      :     1.065030
      py      :     0.968185
      dz2     :     0.011722  d :     0.044903
      dxz     :     0.007663
      dyz     :     0.007290
      dx2y2   :     0.008793
      dxy     :     0.009436
  5 H s       :     0.971260  s :     0.971260
      pz      :     0.004629  p :     0.025156
      px      :     0.006111
      py      :     0.014416
  6 C s       :     2.997288  s :     2.997288
      pz      :     0.914675  p :     2.920879
      px      :     0.997808
      py      :     1.008397
      dz2     :     0.009368  d :     0.033497
      dxz     :     0.007012
      dyz     :     0.005222
      dx2y2   :     0.008338
      dxy     :     0.003558
  7 H s       :     0.948723  s :     0.948723
      pz      :     0.003861  p :     0.022767
      px      :     0.004972
      py      :     0.013934
  8 H s       :     0.939601  s :     0.939601
      pz      :     0.003096  p :     0.020817
      px      :     0.012320
      py      :     0.005400
  9 C s       :     3.019259  s :     3.019259
      pz      :     0.941467  p :     2.974289
      px      :     1.012045
      py      :     1.020777
      dz2     :     0.010889  d :     0.037699
      dxz     :     0.008857
      dyz     :     0.004805
      dx2y2   :     0.004828
      dxy     :     0.008320
 10 H s       :     0.942999  s :     0.942999
      pz      :     0.004124  p :     0.022432
      px      :     0.010085
      py      :     0.008222
 11 H s       :     0.947420  s :     0.947420
      pz      :     0.004900  p :     0.024931
      px      :     0.006396
      py      :     0.013635
 12 C s       :     2.992244  s :     2.992244
      pz      :     0.970219  p :     3.026590
      px      :     1.026404
      py      :     1.029967
      dz2     :     0.008497  d :     0.031250
      dxz     :     0.008293
      dyz     :     0.003264
      dx2y2   :     0.002693
      dxy     :     0.008504
 13 H s       :     0.950880  s :     0.950880
      pz      :     0.004438  p :     0.023772
      px      :     0.009949
      py      :     0.009385
 14 H s       :     0.951914  s :     0.951914
      pz      :     0.011224  p :     0.025558
      px      :     0.008129
      py      :     0.006204
 15 H s       :     0.959550  s :     0.959550
      pz      :     0.005297  p :     0.024899
      px      :     0.007332
      py      :     0.012270
 16 S s       :     5.849773  s :     5.849773
      pz      :     3.271502  p :     9.933486
      px      :     3.199138
      py      :     3.462846
      dz2     :     0.027438  d :     0.109895
      dxz     :     0.014323
      dyz     :     0.022575
      dx2y2   :     0.016332
      dxy     :     0.029226
 17 C s       :     3.136913  s :     3.136913
      pz      :     0.915573  p :     2.891192
      px      :     0.988983
      py      :     0.986636
      dz2     :     0.006465  d :     0.036578
      dxz     :     0.005842
      dyz     :     0.009150
      dx2y2   :     0.007806
      dxy     :     0.007316
 18 C s       :     3.163314  s :     3.163314
      pz      :     0.969864  p :     2.828338
      px      :     0.975456
      py      :     0.883018
      dz2     :     0.005036  d :     0.036800
      dxz     :     0.006221
      dyz     :     0.007210
      dx2y2   :     0.009504
      dxy     :     0.008827
 19 C s       :     3.055653  s :     3.055653
      pz      :     0.978498  p :     2.935889
      px      :     0.976512
      py      :     0.980879
      dz2     :     0.008530  d :     0.043168
      dxz     :     0.007240
      dyz     :     0.008491
      dx2y2   :     0.010189
      dxy     :     0.008717
 20 C s       :     3.058063  s :     3.058063
      pz      :     1.076929  p :     3.052473
      px      :     0.945368
      py      :     1.030176
      dz2     :     0.009298  d :     0.045003
      dxz     :     0.007279
      dyz     :     0.007713
      dx2y2   :     0.009506
      dxy     :     0.011207
 21 H s       :     0.956022  s :     0.956022
      pz      :     0.007992  p :     0.024053
      px      :     0.005857
      py      :     0.010204
 22 C s       :     2.945103  s :     2.945103
      pz      :     1.003425  p :     2.965017
      px      :     0.973642
      py      :     0.987949
      dz2     :     0.008916  d :     0.036402
      dxz     :     0.007183
      dyz     :     0.004471
      dx2y2   :     0.005276
      dxy     :     0.010556
 23 H s       :     0.970449  s :     0.970449
      pz      :     0.012731  p :     0.022288
      px      :     0.004922
      py      :     0.004635
 24 H s       :     0.969003  s :     0.969003
      pz      :     0.005777  p :     0.023289
      px      :     0.007229
      py      :     0.010283
 25 C s       :     2.988965  s :     2.988965
      pz      :     1.000613  p :     2.980840
      px      :     0.962553
      py      :     1.017675
      dz2     :     0.008835  d :     0.039637
      dxz     :     0.008524
      dyz     :     0.004970
      dx2y2   :     0.006582
      dxy     :     0.010727
 26 H s       :     0.964259  s :     0.964259
      pz      :     0.013025  p :     0.024312
      px      :     0.006137
      py      :     0.005149
 27 H s       :     0.950880  s :     0.950880
      pz      :     0.005589  p :     0.023862
      px      :     0.007972
      py      :     0.010300
 28 C s       :     2.977850  s :     2.977850
      pz      :     1.031987  p :     3.013884
      px      :     0.986794
      py      :     0.995103
      dz2     :     0.004839  d :     0.030632
      dxz     :     0.005312
      dyz     :     0.006867
      dx2y2   :     0.005801
      dxy     :     0.007813
 29 H s       :     0.961760  s :     0.961760
      pz      :     0.008579  p :     0.026814
      px      :     0.007787
      py      :     0.010449
 30 H s       :     0.938677  s :     0.938677
      pz      :     0.006208  p :     0.021015
      px      :     0.011113
      py      :     0.003693
 31 H s       :     0.963698  s :     0.963698
      pz      :     0.013076  p :     0.025185
      px      :     0.006338
      py      :     0.005771
 32 H s       :     0.903543  s :     0.903543
      pz      :     0.004507  p :     0.021502
      px      :     0.007513
      py      :     0.009482
 33 H s       :     0.942943  s :     0.942943
      pz      :     0.007907  p :     0.025328
      px      :     0.012408
      py      :     0.005013


                     *******************************
                     * LOEWDIN POPULATION ANALYSIS *
                     *******************************

----------------------
LOEWDIN ATOMIC CHARGES
----------------------
   0 S :    0.428682
   1 C :   -0.213910
   2 C :   -0.067814
   3 C :   -0.061301
   4 C :   -0.198121
   5 H :    0.029626
   6 C :   -0.031812
   7 H :    0.032043
   8 H :    0.039100
   9 C :   -0.043694
  10 H :    0.029555
  11 H :    0.027754
  12 C :   -0.067302
  13 H :    0.020892
  14 H :    0.022053
  15 H :    0.023000
  16 S :    0.411196
  17 C :   -0.165842
  18 C :   -0.069681
  19 C :   -0.058085
  20 C :   -0.213267
  21 H :    0.033583
  22 C :   -0.028012
  23 H :    0.025170
  24 H :    0.025139
  25 C :   -0.033923
  26 H :    0.021636
  27 H :    0.023253
  28 C :   -0.058795
  29 H :    0.010989
  30 H :    0.037663
  31 H :    0.019335
  32 H :    0.034538
  33 H :    0.016352

-------------------------------
LOEWDIN REDUCED ORBITAL CHARGES
-------------------------------
  0 S s       :     5.494274  s :     5.494274
      pz      :     3.243490  p :     9.936163
      px      :     3.412594
      py      :     3.280079
      dz2     :     0.043980  d :     0.140881
      dxz     :     0.023447
      dyz     :     0.021019
      dx2y2   :     0.028131
      dxy     :     0.024303
  1 C s       :     2.946243  s :     2.946243
      pz      :     1.027829  p :     3.184080
      px      :     1.082123
      py      :     1.074128
      dz2     :     0.023127  d :     0.083587
      dxz     :     0.010784
      dyz     :     0.016982
      dx2y2   :     0.013807
      dxy     :     0.018886
  2 C s       :     2.863153  s :     2.863153
      pz      :     1.022282  p :     3.094034
      px      :     1.014010
      py      :     1.057742
      dz2     :     0.021382  d :     0.110627
      dxz     :     0.015427
      dyz     :     0.027849
      dx2y2   :     0.025199
      dxy     :     0.020770
  3 C s       :     2.851849  s :     2.851849
      pz      :     1.040004  p :     3.111699
      px      :     1.023501
      py      :     1.048194
      dz2     :     0.024007  d :     0.097752
      dxz     :     0.015173
      dyz     :     0.023361
      dx2y2   :     0.016426
      dxy     :     0.018785
  4 C s       :     2.908733  s :     2.908733
      pz      :     1.084047  p :     3.182623
      px      :     1.068525
      py      :     1.030052
      dz2     :     0.026188  d :     0.106765
      dxz     :     0.018836
      dyz     :     0.019062
      dx2y2   :     0.021100
      dxy     :     0.021580
  5 H s       :     0.896694  s :     0.896694
      pz      :     0.014552  p :     0.073680
      px      :     0.018440
      py      :     0.040688
  6 C s       :     2.845919  s :     2.845919
      pz      :     1.002431  p :     3.102986
      px      :     1.039414
      py      :     1.061140
      dz2     :     0.022850  d :     0.082908
      dxz     :     0.017951
      dyz     :     0.012626
      dx2y2   :     0.021465
      dxy     :     0.008016
  7 H s       :     0.901289  s :     0.901289
      pz      :     0.013010  p :     0.066668
      px      :     0.013806
      py      :     0.039852
  8 H s       :     0.902015  s :     0.902015
      pz      :     0.010049  p :     0.058886
      px      :     0.035295
      py      :     0.013542
  9 C s       :     2.822151  s :     2.822151
      pz      :     1.011885  p :     3.128653
      px      :     1.048991
      py      :     1.067778
      dz2     :     0.027326  d :     0.092890
      dxz     :     0.023214
      dyz     :     0.009810
      dx2y2   :     0.011287
      dxy     :     0.021253
 10 H s       :     0.905952  s :     0.905952
      pz      :     0.013579  p :     0.064493
      px      :     0.029352
      py      :     0.021562
 11 H s       :     0.899707  s :     0.899707
      pz      :     0.015122  p :     0.072539
      px      :     0.018846
      py      :     0.038571
 12 C s       :     2.817069  s :     2.817069
      pz      :     1.030568  p :     3.170873
      px      :     1.070448
      py      :     1.069857
      dz2     :     0.023013  d :     0.079360
      dxz     :     0.021935
      dyz     :     0.006375
      dx2y2   :     0.006528
      dxy     :     0.021509
 13 H s       :     0.912873  s :     0.912873
      pz      :     0.013564  p :     0.066235
      px      :     0.027699
      py      :     0.024972
 14 H s       :     0.905322  s :     0.905322
      pz      :     0.032874  p :     0.072626
      px      :     0.023205
      py      :     0.016547
 15 H s       :     0.909227  s :     0.909227
      pz      :     0.014214  p :     0.067773
      px      :     0.019679
      py      :     0.033880
 16 S s       :     5.503355  s :     5.503355
      pz      :     3.267234  p :     9.949530
      px      :     3.205186
      py      :     3.477110
      dz2     :     0.033891  d :     0.135919
      dxz     :     0.018084
      dyz     :     0.027082
      dx2y2   :     0.019269
      dxy     :     0.037593
 17 C s       :     2.914031  s :     2.914031
      pz      :     1.015166  p :     3.164774
      px      :     1.070006
      py      :     1.079603
      dz2     :     0.015454  d :     0.087037
      dxz     :     0.012916
      dyz     :     0.020933
      dx2y2   :     0.018387
      dxy     :     0.019346
 18 C s       :     2.857089  s :     2.857089
      pz      :     1.025047  p :     3.115941
      px      :     1.035621
      py      :     1.055274
      dz2     :     0.011912  d :     0.096650
      dxz     :     0.016007
      dyz     :     0.018645
      dx2y2   :     0.025882
      dxy     :     0.024205
 19 C s       :     2.858951  s :     2.858951
      pz      :     1.027216  p :     3.090992
      px      :     1.025861
      py      :     1.037916
      dz2     :     0.019669  d :     0.108142
      dxz     :     0.018796
      dyz     :     0.021883
      dx2y2   :     0.025651
      dxy     :     0.022142
 20 C s       :     2.899890  s :     2.899890
      pz      :     1.086783  p :     3.203842
      px      :     1.032309
      py      :     1.084749
      dz2     :     0.020439  d :     0.109536
      dxz     :     0.017465
      dyz     :     0.020320
      dx2y2   :     0.023233
      dxy     :     0.028078
 21 H s       :     0.895754  s :     0.895754
      pz      :     0.023964  p :     0.070663
      px      :     0.018003
      py      :     0.028696
 22 C s       :     2.826133  s :     2.826133
      pz      :     1.050957  p :     3.111081
      px      :     1.034468
      py      :     1.025656
      dz2     :     0.021477  d :     0.090798
      dxz     :     0.019036
      dyz     :     0.010086
      dx2y2   :     0.012792
      dxy     :     0.027408
 23 H s       :     0.911325  s :     0.911325
      pz      :     0.035155  p :     0.063505
      px      :     0.014837
      py      :     0.013514
 24 H s       :     0.904983  s :     0.904983
      pz      :     0.016987  p :     0.069878
      px      :     0.022237
      py      :     0.030655
 25 C s       :     2.807211  s :     2.807211
      pz      :     1.049681  p :     3.128355
      px      :     1.026931
      py      :     1.051742
      dz2     :     0.021271  d :     0.098358
      dxz     :     0.023243
      dyz     :     0.010791
      dx2y2   :     0.015455
      dxy     :     0.027597
 26 H s       :     0.907421  s :     0.907421
      pz      :     0.036666  p :     0.070943
      px      :     0.018347
      py      :     0.015930
 27 H s       :     0.904932  s :     0.904932
      pz      :     0.016864  p :     0.071814
      px      :     0.024562
      py      :     0.030388
 28 C s       :     2.817787  s :     2.817787
      pz      :     1.076299  p :     3.162572
      px      :     1.038393
      py      :     1.047880
      dz2     :     0.012874  d :     0.078436
      dxz     :     0.013981
      dyz     :     0.016377
      dx2y2   :     0.014624
      dxy     :     0.020580
 29 H s       :     0.910490  s :     0.910490
      pz      :     0.023160  p :     0.078521
      px      :     0.023955
      py      :     0.031406
 30 H s       :     0.906698  s :     0.906698
      pz      :     0.015183  p :     0.055639
      px      :     0.030117
      py      :     0.010338
 31 H s       :     0.911694  s :     0.911694
      pz      :     0.035261  p :     0.068971
      px      :     0.016267
      py      :     0.017443
 32 H s       :     0.898047  s :     0.898047
      pz      :     0.015169  p :     0.067415
      px      :     0.024272
      py      :     0.027974
 33 H s       :     0.902669  s :     0.902669
      pz      :     0.026305  p :     0.080978
      px      :     0.037602
      py      :     0.017071


                      *****************************
                      * MAYER POPULATION ANALYSIS *
                      *****************************

  NA   - Mulliken gross atomic population
  ZA   - Total nuclear charge
  QA   - Mulliken gross atomic charge
  VA   - Mayer's total valence
  BVA  - Mayer's bonded valence
  FA   - Mayer's free valence

  ATOM       NA         ZA         QA         VA         BVA        FA
  0 S     15.8787    16.0000     0.1213     2.5475     2.5475    -0.0000
  1 C      6.1630     6.0000    -0.1630     3.8289     3.8289    -0.0000
  2 C      6.0689     6.0000    -0.0689     3.9459     3.9459    -0.0000
  3 C      5.9596     6.0000     0.0404     3.9177     3.9177    -0.0000
  4 C      6.1804     6.0000    -0.1804     3.9323     3.9323     0.0000
  5 H      0.9964     1.0000     0.0036     1.0050     1.0050    -0.0000
  6 C      5.9517     6.0000     0.0483     3.9465     3.9465    -0.0000
  7 H      0.9715     1.0000     0.0285     0.9857     0.9857    -0.0000
  8 H      0.9604     1.0000     0.0396     0.9856     0.9856     0.0000
  9 C      6.0312     6.0000    -0.0312     4.0540     4.0540     0.0000
 10 H      0.9654     1.0000     0.0346     0.9805     0.9805    -0.0000
 11 H      0.9724     1.0000     0.0276     0.9877     0.9877     0.0000
 12 C      6.0501     6.0000    -0.0501     4.0034     4.0034    -0.0000
 13 H      0.9747     1.0000     0.0253     0.9898     0.9898    -0.0000
 14 H      0.9775     1.0000     0.0225     0.9900     0.9900    -0.0000
 15 H      0.9844     1.0000     0.0156     0.9854     0.9854    -0.0000
 16 S     15.8932    16.0000     0.1068     2.4788     2.4788    -0.0000
 17 C      6.0647     6.0000    -0.0647     3.8375     3.8375     0.0000
 18 C      6.0285     6.0000    -0.0285     3.9543     3.9543     0.0000
 19 C      6.0347     6.0000    -0.0347     4.0287     4.0287     0.0000
 20 C      6.1555     6.0000    -0.1555     3.8943     3.8943     0.0000
 21 H      0.9801     1.0000     0.0199     0.9957     0.9957    -0.0000
 22 C      5.9465     6.0000     0.0535     3.9899     3.9899    -0.0000
 23 H      0.9927     1.0000     0.0073     0.9968     0.9968     0.0000
 24 H      0.9923     1.0000     0.0077     0.9894     0.9894    -0.0000
 25 C      6.0094     6.0000    -0.0094     4.1007     4.1007    -0.0000
 26 H      0.9886     1.0000     0.0114     0.9816     0.9816     0.0000
 27 H      0.9747     1.0000     0.0253     0.9836     0.9836    -0.0000
 28 C      6.0224     6.0000    -0.0224     4.0119     4.0119     0.0000
 29 H      0.9886     1.0000     0.0114     0.9936     0.9936     0.0000
 30 H      0.9597     1.0000     0.0403     0.9823     0.9823     0.0000
 31 H      0.9889     1.0000     0.0111     0.9920     0.9920     0.0000
 32 H      0.9250     1.0000     0.0750     0.9923     0.9923    -0.0000
 33 H      0.9683     1.0000     0.0317     1.0000     1.0000     0.0000

  Mayer bond orders larger than 0.100000
B(  0-S ,  1-C ) :   1.1828 B(  0-S ,  4-C ) :   1.1721 B(  1-C ,  2-C ) :   1.5435 
B(  1-C ,  4-C ) :   0.1116 B(  1-C , 32-H ) :   0.9632 B(  2-C ,  3-C ) :   1.2613 
B(  2-C ,  6-C ) :   1.0312 B(  3-C ,  4-C ) :   1.5702 B(  3-C ,  5-H ) :   0.9958 
B(  4-C , 20-C ) :   1.0215 B(  6-C ,  7-H ) :   0.9390 B(  6-C ,  8-H ) :   0.9465 
B(  6-C ,  9-C ) :   1.0444 B(  9-C , 10-H ) :   0.9553 B(  9-C , 11-H ) :   0.9669 
B(  9-C , 12-C ) :   1.0743 B( 12-C , 13-H ) :   0.9748 B( 12-C , 14-H ) :   0.9724 
B( 12-C , 15-H ) :   0.9810 B( 16-S , 17-C ) :   1.1434 B( 16-S , 20-C ) :   1.1556 
B( 17-C , 18-C ) :   1.6202 B( 17-C , 33-H ) :   0.9737 B( 18-C , 19-C ) :   1.2403 
B( 18-C , 21-H ) :   0.9905 B( 19-C , 20-C ) :   1.6030 B( 19-C , 22-C ) :   1.0439 
B( 22-C , 23-H ) :   0.9273 B( 22-C , 24-H ) :   0.9329 B( 22-C , 25-C ) :   1.0814 
B( 25-C , 26-H ) :   0.9477 B( 25-C , 27-H ) :   0.9514 B( 25-C , 28-C ) :   1.0964 
B( 28-C , 29-H ) :   0.9729 B( 28-C , 30-H ) :   0.9707 B( 28-C , 31-H ) :   0.9697 


-------
TIMINGS
-------

Total SCF time: 0 days 0 hours 0 min 31 sec 

Total time                  ....      31.369 sec
Sum of individual times     ....      30.336 sec  ( 96.7%)

Fock matrix formation       ....      28.123 sec  ( 89.7%)
  XC integration            ....       1.960 sec  (  7.0% of F)
    Basis function eval.    ....       0.228 sec  ( 11.7% of XC)
    Density eval.           ....       0.168 sec  (  8.6% of XC)
    XC-Functional eval.     ....       0.198 sec  ( 10.1% of XC)
    XC-Potential eval.      ....       0.205 sec  ( 10.5% of XC)
Diagonalization             ....       0.169 sec  (  0.5%)
Density matrix formation    ....       0.049 sec  (  0.2%)
Population analysis         ....       0.067 sec  (  0.2%)
Initial guess               ....       0.219 sec  (  0.7%)
Orbital Transformation      ....       0.000 sec  (  0.0%)
Orbital Orthonormalization  ....       0.000 sec  (  0.0%)
DIIS solution               ....       0.135 sec  (  0.4%)
SOSCF solution              ....       0.214 sec  (  0.7%)
Grid generation             ....       1.361 sec  (  4.3%)


-------------------------------------------------------------------------------
                          DFT DISPERSION CORRECTION                            
                                                                               
                              DFTD3 V3.1  Rev 1                                
                              USING zero damping                               
-------------------------------------------------------------------------------
The omegaB97X-D3 functional is recognized. Fit by Chai et al.
Active option DFTDOPT                   ...         3   

molecular C6(AA) [au] = 14137.325035 


            DFT-D V3
 parameters
 s6 scaling factor         :     1.0000 
 rs6 scaling factor        :     1.2810 
 s8 scaling factor         :     1.0000 
 rs8 scaling factor        :     1.0940 
 Damping factor alpha6     :    14.0000 
 Damping factor alpha8     :    16.0000 
 ad hoc parameters k1-k3   :    16.0000     1.3333    -4.0000 

 Edisp/kcal,au: -8.568748058592  -0.013655167768 
 E6   /kcal   :  -3.926160508 
 E8   /kcal   :  -4.642587551 
 % E8         :  54.180465095 

-------------------------   ----------------
Dispersion correction           -0.013655168
-------------------------   ----------------


-------------------------   --------------------
FINAL SINGLE POINT ENERGY     -1339.865484855088
-------------------------   --------------------


                            ***************************************
                            *     ORCA property calculations      *
                            ***************************************

                                    ---------------------
                                    Active property flags
                                    ---------------------
   (+) Dipole Moment


------------------------------------------------------------------------------
                       ORCA ELECTRIC PROPERTIES CALCULATION
------------------------------------------------------------------------------

Dipole Moment Calculation                       ... on
Quadrupole Moment Calculation                   ... off
Polarizability Calculation                      ... off
GBWName                                         ... config_8113.gbw
Electron density file                           ... config_8113.scfp
The origin for moment calculation is the CENTER OF MASS  = (-136.923253, 72.778093 232.034238)

-------------
DIPOLE MOMENT
-------------
                                X             Y             Z
Electronic contribution:     14.16361      17.58606     -10.73090
Nuclear contribution   :    -14.27837     -18.04498      10.88319
                        -----------------------------------------
Total Dipole Moment    :     -0.11476      -0.45892       0.15229
                        -----------------------------------------
Magnitude (a.u.)       :      0.49696
Magnitude (Debye)      :      1.26318



--------------------
Rotational spectrum 
--------------------
 
Rotational constants in cm-1:     0.019352     0.007833     0.006425 
Rotational constants in MHz :   580.165305   234.820491   192.618261 

 Dipole components along the rotational axes: 
x,y,z [a.u.] :     0.074869     0.420020     0.254851 
x,y,z [Debye]:     0.190302     1.067607     0.647780 

 

Timings for individual modules:

Sum of individual times         ...       32.476 sec (=   0.541 min)
GTO integral calculation        ...        0.755 sec (=   0.013 min)   2.3 %
SCF iterations                  ...       31.721 sec (=   0.529 min)  97.7 %
                             ****ORCA TERMINATED NORMALLY****
TOTAL RUN TIME: 0 days 0 hours 0 minutes 33 seconds 186 msec
